216
Lattice="9.542716726852053 5.509490071048377 21.82385814417612 -9.542716726852053 5.509490071048377 21.82385814417612 0.0 -11.018980142096755 21.82385814417612" Properties=species:S:1:pos:R:3:forces:R:3 energy=-679.0593476917095 stress="-0.00031715951878165367 6.8650369729144474e-18 -4.6753095261179135e-18 6.8650369729144474e-18 -0.0003171595187816448 1.222128776386305e-17 -4.6753095261179135e-18 1.222128776386305e-17 -0.00025587654443371387" pbc="T T T"
Sb      -0.00000000       0.00000000      16.53616654       0.00000000      -0.00000000       0.01171258
Sb       3.18090558       1.83649669      23.81078592      -0.00000000      -0.00000000       0.01171258
Sb       6.36181115       3.67299338      31.08540530       0.00000000       0.00000000       0.01171258
Sb      -3.18090558       1.83649669      23.81078592       0.00000000      -0.00000000       0.01171258
Sb       0.00000000       3.67299338      31.08540530      -0.00000000      -0.00000000       0.01171258
Sb       3.18090558       5.50949007      38.36002468       0.00000000       0.00000000       0.01171258
Sb      -6.36181115       3.67299338      31.08540530      -0.00000000       0.00000000       0.01171258
Sb      -3.18090558       5.50949007      38.36002468      -0.00000000       0.00000000       0.01171258
Sb      -0.00000000       7.34598676      45.63464406       0.00000000       0.00000000       0.01171258
Sb      -0.00000000      -3.67299338      23.81078592       0.00000000      -0.00000000       0.01171258
Sb       3.18090558      -1.83649669      31.08540530      -0.00000000      -0.00000000       0.01171258
Sb       6.36181115       0.00000000      38.36002468       0.00000000       0.00000000       0.01171258
Sb      -3.18090558      -1.83649669      31.08540530      -0.00000000       0.00000000       0.01171258
Sb       0.00000000       0.00000000      38.36002468      -0.00000000      -0.00000000       0.01171258
Sb       3.18090558       1.83649669      45.63464406       0.00000000       0.00000000       0.01171258
Sb      -6.36181115      -0.00000000      38.36002468      -0.00000000       0.00000000       0.01171258
Sb      -3.18090558       1.83649669      45.63464406      -0.00000000       0.00000000       0.01171258
Sb      -0.00000000       3.67299338      52.90926345       0.00000000       0.00000000       0.01171258
Sb      -0.00000000      -7.34598676      31.08540530       0.00000000      -0.00000000       0.01171258
Sb       3.18090558      -5.50949007      38.36002468       0.00000000      -0.00000000       0.01171258
Sb       6.36181115      -3.67299338      45.63464406       0.00000000      -0.00000000       0.01171258
Sb      -3.18090558      -5.50949007      38.36002468       0.00000000      -0.00000000       0.01171258
Sb       0.00000000      -3.67299338      45.63464406      -0.00000000      -0.00000000       0.01171258
Sb       3.18090558      -1.83649669      52.90926345       0.00000000      -0.00000000       0.01171258
Sb      -6.36181115      -3.67299338      45.63464406      -0.00000000      -0.00000000       0.01171258
Sb      -3.18090558      -1.83649669      52.90926345      -0.00000000      -0.00000000       0.01171258
Sb      -0.00000000       0.00000000      60.18388283       0.00000000       0.00000000       0.01171258
Sb       0.00000000       0.00000000       5.28769161      -0.00000000       0.00000000      -0.01171258
Sb       3.18090558       1.83649669      12.56231099       0.00000000      -0.00000000      -0.01171258
Sb       6.36181115       3.67299338      19.83693037       0.00000000       0.00000000      -0.01171258
Sb      -3.18090558       1.83649669      12.56231099      -0.00000000      -0.00000000      -0.01171258
Sb       0.00000000       3.67299338      19.83693037       0.00000000       0.00000000      -0.01171258
Sb       3.18090558       5.50949007      27.11154975       0.00000000      -0.00000000      -0.01171258
Sb      -6.36181115       3.67299338      19.83693037      -0.00000000      -0.00000000      -0.01171258
Sb      -3.18090558       5.50949007      27.11154975      -0.00000000       0.00000000      -0.01171258
Sb      -0.00000000       7.34598676      34.38616913       0.00000000       0.00000000      -0.01171258
Sb       0.00000000      -3.67299338      12.56231099       0.00000000      -0.00000000      -0.01171258
Sb       3.18090558      -1.83649669      19.83693037      -0.00000000       0.00000000      -0.01171258
Sb       6.36181115      -0.00000000      27.11154975       0.00000000       0.00000000      -0.01171258
Sb      -3.18090558      -1.83649669      19.83693037       0.00000000       0.00000000      -0.01171258
Sb       0.00000000      -0.00000000      27.11154975       0.00000000       0.00000000      -0.01171258
Sb       3.18090558       1.83649669      34.38616913       0.00000000       0.00000000      -0.01171258
Sb      -6.36181115      -0.00000000      27.11154975      -0.00000000      -0.00000000      -0.01171258
Sb      -3.18090558       1.83649669      34.38616913      -0.00000000       0.00000000      -0.01171258
Sb      -0.00000000       3.67299338      41.66078851       0.00000000       0.00000000      -0.01171258
Sb       0.00000000      -7.34598676      19.83693037      -0.00000000      -0.00000000      -0.01171258
Sb       3.18090558      -5.50949007      27.11154975      -0.00000000      -0.00000000      -0.01171258
Sb       6.36181115      -3.67299338      34.38616913       0.00000000       0.00000000      -0.01171258
Sb      -3.18090558      -5.50949007      27.11154975       0.00000000      -0.00000000      -0.01171258
Sb       0.00000000      -3.67299338      34.38616913       0.00000000      -0.00000000      -0.01171258
Sb       3.18090558      -1.83649669      41.66078851       0.00000000      -0.00000000      -0.01171258
Sb      -6.36181115      -3.67299338      34.38616913      -0.00000000      -0.00000000      -0.01171258
Sb      -3.18090558      -1.83649669      41.66078851       0.00000000       0.00000000      -0.01171258
Sb      -0.00000000       0.00000000      48.93540789       0.00000000       0.00000000      -0.01171258
K        0.00000000       0.00000000      10.91192907       0.00000000      -0.00000000      -0.00000000
K        3.18090558       1.83649669      18.18654845       0.00000000       0.00000000       0.00000000
K        6.36181115       3.67299338      25.46116783       0.00000000       0.00000000      -0.00000000
K       -3.18090558       1.83649669      18.18654845       0.00000000       0.00000000       0.00000000
K        0.00000000       3.67299338      25.46116783       0.00000000       0.00000000      -0.00000000
K        3.18090558       5.50949007      32.73578722      -0.00000000      -0.00000000      -0.00000000
K       -6.36181115       3.67299338      25.46116783       0.00000000       0.00000000       0.00000000
K       -3.18090558       5.50949007      32.73578722       0.00000000      -0.00000000      -0.00000000
K       -0.00000000       7.34598676      40.01040660       0.00000000       0.00000000      -0.00000000
K        0.00000000      -3.67299338      18.18654845       0.00000000      -0.00000000       0.00000000
K        3.18090558      -1.83649669      25.46116783      -0.00000000      -0.00000000      -0.00000000
K        6.36181115       0.00000000      32.73578722      -0.00000000      -0.00000000      -0.00000000
K       -3.18090558      -1.83649669      25.46116783       0.00000000      -0.00000000      -0.00000000
K        0.00000000       0.00000000      32.73578722       0.00000000       0.00000000      -0.00000000
K        3.18090558       1.83649669      40.01040660      -0.00000000      -0.00000000      -0.00000000
K       -6.36181115       0.00000000      32.73578722       0.00000000      -0.00000000      -0.00000000
K       -3.18090558       1.83649669      40.01040660      -0.00000000      -0.00000000      -0.00000000
K       -0.00000000       3.67299338      47.28502598       0.00000000      -0.00000000      -0.00000000
K        0.00000000      -7.34598676      25.46116783       0.00000000      -0.00000000       0.00000000
K        3.18090558      -5.50949007      32.73578722      -0.00000000       0.00000000      -0.00000000
K        6.36181115      -3.67299338      40.01040660       0.00000000      -0.00000000      -0.00000000
K       -3.18090558      -5.50949007      32.73578722       0.00000000       0.00000000      -0.00000000
K        0.00000000      -3.67299338      40.01040660       0.00000000       0.00000000       0.00000000
K        3.18090558      -1.83649669      47.28502598       0.00000000      -0.00000000      -0.00000000
K       -6.36181115      -3.67299338      40.01040660       0.00000000       0.00000000       0.00000000
K       -3.18090558      -1.83649669      47.28502598       0.00000000      -0.00000000      -0.00000000
K       -0.00000000       0.00000000      54.55964536       0.00000000      -0.00000000      -0.00000000
K        0.00000000       0.00000000       1.76833127      -0.00000000       0.00000000      -0.00676170
K        3.18090558       1.83649669       9.04295065      -0.00000000       0.00000000      -0.00676170
K        6.36181115       3.67299338      16.31757003      -0.00000000       0.00000000      -0.00676170
K       -3.18090558       1.83649669       9.04295065      -0.00000000      -0.00000000      -0.00676170
K        0.00000000       3.67299338      16.31757003      -0.00000000       0.00000000      -0.00676170
K        3.18090558       5.50949007      23.59218941      -0.00000000       0.00000000      -0.00676170
K       -6.36181115       3.67299338      16.31757003      -0.00000000       0.00000000      -0.00676170
K       -3.18090558       5.50949007      23.59218941       0.00000000       0.00000000      -0.00676170
K        0.00000000       7.34598676      30.86680879      -0.00000000      -0.00000000      -0.00676170
K        0.00000000      -3.67299338       9.04295065      -0.00000000       0.00000000      -0.00676170
K        3.18090558      -1.83649669      16.31757003       0.00000000      -0.00000000      -0.00676170
K        6.36181115       0.00000000      23.59218941      -0.00000000      -0.00000000      -0.00676170
K       -3.18090558      -1.83649669      16.31757003      -0.00000000      -0.00000000      -0.00676170
K        0.00000000       0.00000000      23.59218941       0.00000000      -0.00000000      -0.00676170
K        3.18090558       1.83649669      30.86680879      -0.00000000      -0.00000000      -0.00676170
K       -6.36181115       0.00000000      23.59218941      -0.00000000      -0.00000000      -0.00676170
K       -3.18090558       1.83649669      30.86680879       0.00000000      -0.00000000      -0.00676170
K        0.00000000       3.67299338      38.14142817       0.00000000      -0.00000000      -0.00676170
K        0.00000000      -7.34598676      16.31757003       0.00000000       0.00000000      -0.00676170
K        3.18090558      -5.50949007      23.59218941      -0.00000000       0.00000000      -0.00676170
K        6.36181115      -3.67299338      30.86680879      -0.00000000       0.00000000      -0.00676170
K       -3.18090558      -5.50949007      23.59218941      -0.00000000       0.00000000      -0.00676170
K        0.00000000      -3.67299338      30.86680879       0.00000000       0.00000000      -0.00676170
K        3.18090558      -1.83649669      38.14142817      -0.00000000       0.00000000      -0.00676170
K       -6.36181115      -3.67299338      30.86680879       0.00000000       0.00000000      -0.00676170
K       -3.18090558      -1.83649669      38.14142817       0.00000000       0.00000000      -0.00676170
K        0.00000000       0.00000000      45.41604755       0.00000000      -0.00000000      -0.00676170
K        0.00000000       0.00000000      20.05552688      -0.00000000      -0.00000000       0.00676170
K        3.18090558       1.83649669      27.33014626      -0.00000000       0.00000000       0.00676170
K        6.36181115       3.67299338      34.60476564      -0.00000000      -0.00000000       0.00676170
K       -3.18090558       1.83649669      27.33014626      -0.00000000      -0.00000000       0.00676170
K        0.00000000       3.67299338      34.60476564      -0.00000000       0.00000000       0.00676170
K        3.18090558       5.50949007      41.87938502      -0.00000000       0.00000000       0.00676170
K       -6.36181115       3.67299338      34.60476564      -0.00000000      -0.00000000       0.00676170
K       -3.18090558       5.50949007      41.87938502      -0.00000000       0.00000000       0.00676170
K        0.00000000       7.34598676      49.15400440      -0.00000000       0.00000000       0.00676170
K        0.00000000      -3.67299338      27.33014626      -0.00000000      -0.00000000       0.00676170
K        3.18090558      -1.83649669      34.60476564       0.00000000      -0.00000000       0.00676170
K        6.36181115       0.00000000      41.87938502      -0.00000000      -0.00000000       0.00676170
K       -3.18090558      -1.83649669      34.60476564      -0.00000000      -0.00000000       0.00676170
K        0.00000000       0.00000000      41.87938502      -0.00000000      -0.00000000       0.00676170
K        3.18090558       1.83649669      49.15400440      -0.00000000      -0.00000000       0.00676170
K       -6.36181115       0.00000000      41.87938502      -0.00000000      -0.00000000       0.00676170
K       -3.18090558       1.83649669      49.15400440      -0.00000000      -0.00000000       0.00676170
K        0.00000000       3.67299338      56.42862379      -0.00000000      -0.00000000       0.00676170
K        0.00000000      -7.34598676      34.60476564      -0.00000000      -0.00000000       0.00676170
K        3.18090558      -5.50949007      41.87938502      -0.00000000      -0.00000000       0.00676170
K        6.36181115      -3.67299338      49.15400440      -0.00000000      -0.00000000       0.00676170
K       -3.18090558      -5.50949007      41.87938502      -0.00000000       0.00000000       0.00676170
K        0.00000000      -3.67299338      49.15400440      -0.00000000       0.00000000       0.00676170
K        3.18090558      -1.83649669      56.42862379      -0.00000000      -0.00000000       0.00676170
K       -6.36181115      -3.67299338      49.15400440      -0.00000000      -0.00000000       0.00676170
K       -3.18090558      -1.83649669      56.42862379      -0.00000000      -0.00000000       0.00676170
K        0.00000000       0.00000000      63.70324317      -0.00000000      -0.00000000       0.00676170
Au       0.00000000       1.83649669       7.27461938       0.00000000       0.00000000       0.00000000
Au       3.18090558       3.67299338      14.54923876       0.00000000       0.00000000       0.00000000
Au       6.36181115       5.50949007      21.82385814       0.00000000       0.00000000      -0.00000000
Au      -3.18090558       3.67299338      14.54923876      -0.00000000       0.00000000       0.00000000
Au       0.00000000       5.50949007      21.82385814       0.00000000       0.00000000       0.00000000
Au       3.18090558       7.34598676      29.09847753       0.00000000      -0.00000000      -0.00000000
Au      -6.36181115       5.50949007      21.82385814       0.00000000      -0.00000000      -0.00000000
Au      -3.18090558       7.34598676      29.09847753      -0.00000000      -0.00000000      -0.00000000
Au      -0.00000000       9.18248345      36.37309691       0.00000000      -0.00000000      -0.00000000
Au       0.00000000      -1.83649669      14.54923876       0.00000000       0.00000000       0.00000000
Au       3.18090558       0.00000000      21.82385814       0.00000000       0.00000000       0.00000000
Au       6.36181115       1.83649669      29.09847753       0.00000000      -0.00000000      -0.00000000
Au      -3.18090558       0.00000000      21.82385814      -0.00000000       0.00000000       0.00000000
Au       0.00000000       1.83649669      29.09847753       0.00000000       0.00000000       0.00000000
Au       3.18090558       3.67299338      36.37309691       0.00000000      -0.00000000      -0.00000000
Au      -6.36181115       1.83649669      29.09847753       0.00000000       0.00000000       0.00000000
Au      -3.18090558       3.67299338      36.37309691      -0.00000000      -0.00000000      -0.00000000
Au      -0.00000000       5.50949007      43.64771629       0.00000000      -0.00000000      -0.00000000
Au       0.00000000      -5.50949007      21.82385814      -0.00000000       0.00000000       0.00000000
Au       3.18090558      -3.67299338      29.09847753       0.00000000       0.00000000       0.00000000
Au       6.36181115      -1.83649669      36.37309691       0.00000000      -0.00000000      -0.00000000
Au      -3.18090558      -3.67299338      29.09847753       0.00000000       0.00000000       0.00000000
Au       0.00000000      -1.83649669      36.37309691       0.00000000       0.00000000       0.00000000
Au       3.18090558       0.00000000      43.64771629      -0.00000000      -0.00000000      -0.00000000
Au      -6.36181115      -1.83649669      36.37309691       0.00000000       0.00000000       0.00000000
Au      -3.18090558       0.00000000      43.64771629       0.00000000      -0.00000000      -0.00000000
Au      -0.00000000       1.83649669      50.92233567       0.00000000      -0.00000000      -0.00000000
Au      -1.59045279      -0.91824835       7.27461938      -0.00000000      -0.00000000       0.00000000
Au       1.59045279       0.91824835      14.54923876      -0.00000000      -0.00000000       0.00000000
Au       4.77135836       2.75474504      21.82385814      -0.00000000      -0.00000000       0.00000000
Au      -4.77135836       0.91824835      14.54923876      -0.00000000      -0.00000000       0.00000000
Au      -1.59045279       2.75474504      21.82385814       0.00000000       0.00000000      -0.00000000
Au       1.59045279       4.59124173      29.09847753      -0.00000000      -0.00000000       0.00000000
Au      -7.95226394       2.75474504      21.82385814      -0.00000000      -0.00000000       0.00000000
Au      -4.77135836       4.59124173      29.09847753       0.00000000       0.00000000      -0.00000000
Au      -1.59045279       6.42773842      36.37309691       0.00000000       0.00000000      -0.00000000
Au      -1.59045279      -4.59124173      14.54923876      -0.00000000      -0.00000000       0.00000000
Au       1.59045279      -2.75474504      21.82385814      -0.00000000      -0.00000000       0.00000000
Au       4.77135836      -0.91824835      29.09847753      -0.00000000      -0.00000000       0.00000000
Au      -4.77135836      -2.75474504      21.82385814      -0.00000000      -0.00000000       0.00000000
Au      -1.59045279      -0.91824835      29.09847753      -0.00000000      -0.00000000       0.00000000
Au       1.59045279       0.91824835      36.37309691      -0.00000000      -0.00000000       0.00000000
Au      -7.95226394      -0.91824835      29.09847753      -0.00000000      -0.00000000       0.00000000
Au      -4.77135836       0.91824835      36.37309691      -0.00000000      -0.00000000       0.00000000
Au      -1.59045279       2.75474504      43.64771629       0.00000000       0.00000000      -0.00000000
Au      -1.59045279      -8.26423511      21.82385814      -0.00000000      -0.00000000       0.00000000
Au       1.59045279      -6.42773842      29.09847753       0.00000000       0.00000000      -0.00000000
Au       4.77135836      -4.59124173      36.37309691      -0.00000000      -0.00000000       0.00000000
Au      -4.77135836      -6.42773842      29.09847753       0.00000000      -0.00000000      -0.00000000
Au      -1.59045279      -4.59124173      36.37309691      -0.00000000      -0.00000000       0.00000000
Au       1.59045279      -2.75474504      43.64771629      -0.00000000      -0.00000000       0.00000000
Au      -7.95226394      -4.59124173      36.37309691       0.00000000       0.00000000      -0.00000000
Au      -4.77135836      -2.75474504      43.64771629       0.00000000       0.00000000      -0.00000000
Au      -1.59045279      -0.91824835      50.92233567       0.00000000       0.00000000      -0.00000000
Au       1.59045279      -0.91824835       7.27461938       0.00000000      -0.00000000       0.00000000
Au       4.77135836       0.91824835      14.54923876       0.00000000      -0.00000000       0.00000000
Au       7.95226394       2.75474504      21.82385814      -0.00000000       0.00000000      -0.00000000
Au      -1.59045279       0.91824835      14.54923876       0.00000000      -0.00000000       0.00000000
Au       1.59045279       2.75474504      21.82385814       0.00000000      -0.00000000       0.00000000
Au       4.77135836       4.59124173      29.09847753      -0.00000000       0.00000000      -0.00000000
Au      -4.77135836       2.75474504      21.82385814      -0.00000000      -0.00000000      -0.00000000
Au      -1.59045279       4.59124173      29.09847753       0.00000000      -0.00000000       0.00000000
Au       1.59045279       6.42773842      36.37309691      -0.00000000       0.00000000      -0.00000000
Au       1.59045279      -4.59124173      14.54923876       0.00000000      -0.00000000       0.00000000
Au       4.77135836      -2.75474504      21.82385814       0.00000000       0.00000000       0.00000000
Au       7.95226394      -0.91824835      29.09847753      -0.00000000       0.00000000      -0.00000000
Au      -1.59045279      -2.75474504      21.82385814       0.00000000      -0.00000000       0.00000000
Au       1.59045279      -0.91824835      29.09847753       0.00000000      -0.00000000       0.00000000
Au       4.77135836       0.91824835      36.37309691       0.00000000      -0.00000000       0.00000000
Au      -4.77135836      -0.91824835      29.09847753       0.00000000      -0.00000000       0.00000000
Au      -1.59045279       0.91824835      36.37309691       0.00000000      -0.00000000       0.00000000
Au       1.59045279       2.75474504      43.64771629      -0.00000000       0.00000000      -0.00000000
Au       1.59045279      -8.26423511      21.82385814      -0.00000000       0.00000000      -0.00000000
Au       4.77135836      -6.42773842      29.09847753      -0.00000000       0.00000000      -0.00000000
Au       7.95226394      -4.59124173      36.37309691      -0.00000000       0.00000000      -0.00000000
Au      -1.59045279      -6.42773842      29.09847753       0.00000000      -0.00000000       0.00000000
Au       1.59045279      -4.59124173      36.37309691       0.00000000      -0.00000000       0.00000000
Au       4.77135836      -2.75474504      43.64771629       0.00000000      -0.00000000       0.00000000
Au      -4.77135836      -4.59124173      36.37309691       0.00000000      -0.00000000       0.00000000
Au      -1.59045279      -2.75474504      43.64771629      -0.00000000       0.00000000      -0.00000000
Au       1.59045279      -0.91824835      50.92233567      -0.00000000       0.00000000      -0.00000000
