128
Lattice="0.0 10.937160696091608 10.937160696091608 10.937160696091608 0.0 10.937160696091608 10.937160696091608 10.937160696091608 0.0" Properties=species:S:1:pos:R:3:forces:R:3 energy=-693.9661275123362 stress="-1.933617603351562e-05 1.9773061491359404e-17 3.4342118213633294e-18 1.9773061491359404e-17 -1.933617603351173e-05 3.2826768590115346e-17 3.4342118213633294e-18 3.2826768590115346e-17 -1.9336176033487414e-05" pbc="T T T"
Si       1.36714509       1.36714509       1.36714509      -0.00000000      -0.00000000      -0.00000000
Si       1.36714509       4.10143526       4.10143526      -0.00000000       0.00000000       0.00000000
Si       1.36714509       6.83572544       6.83572544       0.00000000      -0.00000000      -0.00000000
Si       1.36714509       9.57001561       9.57001561      -0.00000000      -0.00000000       0.00000000
Si       4.10143526       1.36714509       4.10143526       0.00000000      -0.00000000       0.00000000
Si       4.10143526       4.10143526       6.83572544       0.00000000       0.00000000      -0.00000000
Si       4.10143526       6.83572544       9.57001561       0.00000000      -0.00000000       0.00000000
Si       4.10143526       9.57001561      12.30430578       0.00000000       0.00000000      -0.00000000
Si       6.83572544       1.36714509       6.83572544      -0.00000000       0.00000000      -0.00000000
Si       6.83572544       4.10143526       9.57001561      -0.00000000       0.00000000       0.00000000
Si       6.83572544       6.83572544      12.30430578      -0.00000000      -0.00000000      -0.00000000
Si       6.83572544       9.57001561      15.03859596      -0.00000000      -0.00000000       0.00000000
Si       9.57001561       1.36714509       9.57001561      -0.00000000      -0.00000000       0.00000000
Si       9.57001561       4.10143526      12.30430578      -0.00000000       0.00000000       0.00000000
Si       9.57001561       6.83572544      15.03859596      -0.00000000      -0.00000000      -0.00000000
Si       9.57001561       9.57001561      17.77288613      -0.00000000       0.00000000      -0.00000000
Si       4.10143526       4.10143526       1.36714509       0.00000000       0.00000000      -0.00000000
Si       4.10143526       6.83572544       4.10143526       0.00000000      -0.00000000       0.00000000
Si       4.10143526       9.57001561       6.83572544       0.00000000       0.00000000      -0.00000000
Si       4.10143526      12.30430578       9.57001561       0.00000000      -0.00000000       0.00000000
Si       6.83572544       4.10143526       4.10143526      -0.00000000       0.00000000       0.00000000
Si       6.83572544       6.83572544       6.83572544      -0.00000000      -0.00000000      -0.00000000
Si       6.83572544       9.57001561       9.57001561      -0.00000000       0.00000000       0.00000000
Si       6.83572544      12.30430578      12.30430578      -0.00000000      -0.00000000      -0.00000000
Si       9.57001561       4.10143526       6.83572544       0.00000000       0.00000000      -0.00000000
Si       9.57001561       6.83572544       9.57001561       0.00000000      -0.00000000       0.00000000
Si       9.57001561       9.57001561      12.30430578       0.00000000      -0.00000000      -0.00000000
Si       9.57001561      12.30430578      15.03859596      -0.00000000      -0.00000000       0.00000000
Si      12.30430578       4.10143526       9.57001561      -0.00000000       0.00000000       0.00000000
Si      12.30430578       6.83572544      12.30430578      -0.00000000      -0.00000000       0.00000000
Si      12.30430578       9.57001561      15.03859596      -0.00000000      -0.00000000      -0.00000000
Si      12.30430578      12.30430578      17.77288613      -0.00000000      -0.00000000       0.00000000
Si       6.83572544       6.83572544       1.36714509      -0.00000000      -0.00000000       0.00000000
Si       6.83572544       9.57001561       4.10143526      -0.00000000       0.00000000       0.00000000
Si       6.83572544      12.30430578       6.83572544      -0.00000000      -0.00000000      -0.00000000
Si       6.83572544      15.03859596       9.57001561      -0.00000000       0.00000000      -0.00000000
Si       9.57001561       6.83572544       4.10143526       0.00000000      -0.00000000       0.00000000
Si       9.57001561       9.57001561       6.83572544       0.00000000       0.00000000      -0.00000000
Si       9.57001561      12.30430578       9.57001561       0.00000000      -0.00000000      -0.00000000
Si       9.57001561      15.03859596      12.30430578      -0.00000000       0.00000000      -0.00000000
Si      12.30430578       6.83572544       6.83572544      -0.00000000      -0.00000000      -0.00000000
Si      12.30430578       9.57001561       9.57001561      -0.00000000       0.00000000      -0.00000000
Si      12.30430578      12.30430578      12.30430578       0.00000000       0.00000000      -0.00000000
Si      12.30430578      15.03859596      15.03859596      -0.00000000       0.00000000       0.00000000
Si      15.03859596       6.83572544       9.57001561       0.00000000      -0.00000000      -0.00000000
Si      15.03859596       9.57001561      12.30430578       0.00000000       0.00000000      -0.00000000
Si      15.03859596      12.30430578      15.03859596       0.00000000      -0.00000000      -0.00000000
Si      15.03859596      15.03859596      17.77288613       0.00000000       0.00000000       0.00000000
Si       9.57001561       9.57001561       1.36714509      -0.00000000      -0.00000000       0.00000000
Si       9.57001561      12.30430578       4.10143526       0.00000000       0.00000000       0.00000000
Si       9.57001561      15.03859596       6.83572544      -0.00000000      -0.00000000      -0.00000000
Si       9.57001561      17.77288613       9.57001561      -0.00000000      -0.00000000       0.00000000
Si      12.30430578       9.57001561       4.10143526       0.00000000       0.00000000       0.00000000
Si      12.30430578      12.30430578       6.83572544      -0.00000000      -0.00000000      -0.00000000
Si      12.30430578      15.03859596       9.57001561       0.00000000      -0.00000000       0.00000000
Si      12.30430578      17.77288613      12.30430578      -0.00000000       0.00000000      -0.00000000
Si      15.03859596       9.57001561       6.83572544      -0.00000000      -0.00000000      -0.00000000
Si      15.03859596      12.30430578       9.57001561      -0.00000000       0.00000000       0.00000000
Si      15.03859596      15.03859596      12.30430578      -0.00000000      -0.00000000      -0.00000000
Si      15.03859596      17.77288613      15.03859596      -0.00000000       0.00000000       0.00000000
Si      17.77288613       9.57001561       9.57001561      -0.00000000      -0.00000000       0.00000000
Si      17.77288613      12.30430578      12.30430578      -0.00000000       0.00000000       0.00000000
Si      17.77288613      15.03859596      15.03859596      -0.00000000      -0.00000000      -0.00000000
Si      17.77288613      17.77288613      17.77288613       0.00000000       0.00000000       0.00000000
Si       0.00000000       0.00000000       0.00000000      -0.00000000      -0.00000000       0.00000000
Si       0.00000000       2.73429017       2.73429017      -0.00000000      -0.00000000       0.00000000
Si       0.00000000       5.46858035       5.46858035       0.00000000       0.00000000       0.00000000
Si       0.00000000       8.20287052       8.20287052      -0.00000000       0.00000000       0.00000000
Si       2.73429017       0.00000000       2.73429017      -0.00000000      -0.00000000       0.00000000
Si       2.73429017       2.73429017       5.46858035      -0.00000000      -0.00000000       0.00000000
Si       2.73429017       5.46858035       8.20287052       0.00000000       0.00000000       0.00000000
Si       2.73429017       8.20287052      10.93716070      -0.00000000      -0.00000000       0.00000000
Si       5.46858035       0.00000000       5.46858035       0.00000000      -0.00000000      -0.00000000
Si       5.46858035       2.73429017       8.20287052       0.00000000       0.00000000      -0.00000000
Si       5.46858035       5.46858035      10.93716070       0.00000000       0.00000000      -0.00000000
Si       5.46858035       8.20287052      13.67145087       0.00000000       0.00000000       0.00000000
Si       8.20287052       0.00000000       8.20287052       0.00000000      -0.00000000       0.00000000
Si       8.20287052       2.73429017      10.93716070      -0.00000000      -0.00000000       0.00000000
Si       8.20287052       5.46858035      13.67145087       0.00000000       0.00000000      -0.00000000
Si       8.20287052       8.20287052      16.40574104      -0.00000000      -0.00000000       0.00000000
Si       2.73429017       2.73429017       0.00000000       0.00000000       0.00000000      -0.00000000
Si       2.73429017       5.46858035       2.73429017      -0.00000000       0.00000000      -0.00000000
Si       2.73429017       8.20287052       5.46858035       0.00000000       0.00000000       0.00000000
Si       2.73429017      10.93716070       8.20287052      -0.00000000       0.00000000      -0.00000000
Si       5.46858035       2.73429017       2.73429017       0.00000000      -0.00000000      -0.00000000
Si       5.46858035       5.46858035       5.46858035      -0.00000000      -0.00000000      -0.00000000
Si       5.46858035       8.20287052       8.20287052      -0.00000000       0.00000000       0.00000000
Si       5.46858035      10.93716070      10.93716070      -0.00000000      -0.00000000      -0.00000000
Si       8.20287052       2.73429017       5.46858035       0.00000000      -0.00000000      -0.00000000
Si       8.20287052       5.46858035       8.20287052       0.00000000      -0.00000000       0.00000000
Si       8.20287052       8.20287052      10.93716070       0.00000000       0.00000000      -0.00000000
Si       8.20287052      10.93716070      13.67145087       0.00000000       0.00000000       0.00000000
Si      10.93716070       2.73429017       8.20287052       0.00000000      -0.00000000      -0.00000000
Si      10.93716070       5.46858035      10.93716070      -0.00000000      -0.00000000      -0.00000000
Si      10.93716070       8.20287052      13.67145087      -0.00000000       0.00000000      -0.00000000
Si      10.93716070      10.93716070      16.40574104      -0.00000000       0.00000000       0.00000000
Si       5.46858035       5.46858035       0.00000000      -0.00000000      -0.00000000       0.00000000
Si       5.46858035       8.20287052       2.73429017      -0.00000000       0.00000000      -0.00000000
Si       5.46858035      10.93716070       5.46858035       0.00000000      -0.00000000       0.00000000
Si       5.46858035      13.67145087       8.20287052      -0.00000000       0.00000000      -0.00000000
Si       8.20287052       5.46858035       2.73429017       0.00000000      -0.00000000      -0.00000000
Si       8.20287052       8.20287052       5.46858035       0.00000000       0.00000000      -0.00000000
Si       8.20287052      10.93716070       8.20287052       0.00000000      -0.00000000       0.00000000
Si       8.20287052      13.67145087      10.93716070       0.00000000       0.00000000       0.00000000
Si      10.93716070       5.46858035       5.46858035      -0.00000000      -0.00000000      -0.00000000
Si      10.93716070       8.20287052       8.20287052      -0.00000000       0.00000000       0.00000000
Si      10.93716070      10.93716070      10.93716070      -0.00000000      -0.00000000      -0.00000000
Si      10.93716070      13.67145087      13.67145087       0.00000000       0.00000000       0.00000000
Si      13.67145087       5.46858035       8.20287052       0.00000000      -0.00000000      -0.00000000
Si      13.67145087       8.20287052      10.93716070       0.00000000       0.00000000       0.00000000
Si      13.67145087      10.93716070      13.67145087       0.00000000      -0.00000000      -0.00000000
Si      13.67145087      13.67145087      16.40574104       0.00000000       0.00000000       0.00000000
Si       8.20287052       8.20287052       0.00000000       0.00000000       0.00000000      -0.00000000
Si       8.20287052      10.93716070       2.73429017       0.00000000      -0.00000000      -0.00000000
Si       8.20287052      13.67145087       5.46858035       0.00000000      -0.00000000       0.00000000
Si       8.20287052      16.40574104       8.20287052      -0.00000000       0.00000000      -0.00000000
Si      10.93716070       8.20287052       2.73429017      -0.00000000       0.00000000      -0.00000000
Si      10.93716070      10.93716070       5.46858035      -0.00000000      -0.00000000      -0.00000000
Si      10.93716070      13.67145087       8.20287052      -0.00000000      -0.00000000       0.00000000
Si      10.93716070      16.40574104      10.93716070      -0.00000000       0.00000000       0.00000000
Si      13.67145087       8.20287052       5.46858035       0.00000000      -0.00000000      -0.00000000
Si      13.67145087      10.93716070       8.20287052      -0.00000000      -0.00000000       0.00000000
Si      13.67145087      13.67145087      10.93716070      -0.00000000      -0.00000000      -0.00000000
Si      13.67145087      16.40574104      13.67145087      -0.00000000      -0.00000000       0.00000000
Si      16.40574104       8.20287052       8.20287052       0.00000000      -0.00000000      -0.00000000
Si      16.40574104      10.93716070      10.93716070       0.00000000      -0.00000000       0.00000000
Si      16.40574104      13.67145087      13.67145087       0.00000000      -0.00000000       0.00000000
Si      16.40574104      16.40574104      16.40574104      -0.00000000      -0.00000000       0.00000000
