54
Lattice="0.0 8.202870522068705 8.202870522068705 8.202870522068705 0.0 8.202870522068705 8.202870522068705 8.202870522068705 0.0" Properties=species:S:1:pos:R:3:forces:R:3 energy=-292.76696004426685 stress="-1.9336176033958947e-05 7.439218059476852e-17 7.600805651153983e-17 7.439218059476852e-17 -1.9336176033958426e-05 7.585425009079714e-17 7.600805651153983e-17 7.585425009079714e-17 -1.933617603393188e-05" pbc="T T T"
Si       1.36714509       1.36714509       1.36714509       0.00000000       0.00000000       0.00000000
Si       1.36714509       4.10143526       4.10143526      -0.00000000      -0.00000000      -0.00000000
Si       1.36714509       6.83572544       6.83572544      -0.00000000      -0.00000000      -0.00000000
Si       4.10143526       1.36714509       4.10143526      -0.00000000      -0.00000000      -0.00000000
Si       4.10143526       4.10143526       6.83572544      -0.00000000      -0.00000000      -0.00000000
Si       4.10143526       6.83572544       9.57001561      -0.00000000      -0.00000000      -0.00000000
Si       6.83572544       1.36714509       6.83572544      -0.00000000      -0.00000000      -0.00000000
Si       6.83572544       4.10143526       9.57001561      -0.00000000      -0.00000000      -0.00000000
Si       6.83572544       6.83572544      12.30430578      -0.00000000      -0.00000000       0.00000000
Si       4.10143526       4.10143526       1.36714509      -0.00000000      -0.00000000      -0.00000000
Si       4.10143526       6.83572544       4.10143526      -0.00000000      -0.00000000      -0.00000000
Si       4.10143526       9.57001561       6.83572544      -0.00000000      -0.00000000      -0.00000000
Si       6.83572544       4.10143526       4.10143526      -0.00000000      -0.00000000      -0.00000000
Si       6.83572544       6.83572544       6.83572544      -0.00000000      -0.00000000      -0.00000000
Si       6.83572544       9.57001561       9.57001561      -0.00000000      -0.00000000      -0.00000000
Si       9.57001561       4.10143526       6.83572544      -0.00000000      -0.00000000      -0.00000000
Si       9.57001561       6.83572544       9.57001561      -0.00000000      -0.00000000      -0.00000000
Si       9.57001561       9.57001561      12.30430578      -0.00000000      -0.00000000       0.00000000
Si       6.83572544       6.83572544       1.36714509      -0.00000000      -0.00000000      -0.00000000
Si       6.83572544       9.57001561       4.10143526      -0.00000000      -0.00000000      -0.00000000
Si       6.83572544      12.30430578       6.83572544      -0.00000000       0.00000000      -0.00000000
Si       9.57001561       6.83572544       4.10143526      -0.00000000      -0.00000000      -0.00000000
Si       9.57001561       9.57001561       6.83572544      -0.00000000      -0.00000000      -0.00000000
Si       9.57001561      12.30430578       9.57001561      -0.00000000       0.00000000      -0.00000000
Si      12.30430578       6.83572544       6.83572544       0.00000000      -0.00000000      -0.00000000
Si      12.30430578       9.57001561       9.57001561       0.00000000      -0.00000000      -0.00000000
Si      12.30430578      12.30430578      12.30430578       0.00000000       0.00000000       0.00000000
Si       0.00000000       0.00000000       0.00000000      -0.00000000      -0.00000000      -0.00000000
Si       0.00000000       2.73429017       2.73429017       0.00000000       0.00000000       0.00000000
Si       0.00000000       5.46858035       5.46858035      -0.00000000       0.00000000       0.00000000
Si       2.73429017       0.00000000       2.73429017       0.00000000       0.00000000       0.00000000
Si       2.73429017       2.73429017       5.46858035       0.00000000       0.00000000       0.00000000
Si       2.73429017       5.46858035       8.20287052      -0.00000000       0.00000000       0.00000000
Si       5.46858035       0.00000000       5.46858035       0.00000000      -0.00000000       0.00000000
Si       5.46858035       2.73429017       8.20287052       0.00000000      -0.00000000       0.00000000
Si       5.46858035       5.46858035      10.93716070      -0.00000000      -0.00000000       0.00000000
Si       2.73429017       2.73429017       0.00000000       0.00000000       0.00000000       0.00000000
Si       2.73429017       5.46858035       2.73429017       0.00000000       0.00000000       0.00000000
Si       2.73429017       8.20287052       5.46858035      -0.00000000       0.00000000       0.00000000
Si       5.46858035       2.73429017       2.73429017       0.00000000       0.00000000       0.00000000
Si       5.46858035       5.46858035       5.46858035       0.00000000       0.00000000       0.00000000
Si       5.46858035       8.20287052       8.20287052       0.00000000       0.00000000       0.00000000
Si       8.20287052       2.73429017       5.46858035       0.00000000      -0.00000000       0.00000000
Si       8.20287052       5.46858035       8.20287052       0.00000000       0.00000000       0.00000000
Si       8.20287052       8.20287052      10.93716070       0.00000000       0.00000000       0.00000000
Si       5.46858035       5.46858035       0.00000000       0.00000000       0.00000000      -0.00000000
Si       5.46858035       8.20287052       2.73429017       0.00000000       0.00000000      -0.00000000
Si       5.46858035      10.93716070       5.46858035      -0.00000000       0.00000000      -0.00000000
Si       8.20287052       5.46858035       2.73429017       0.00000000       0.00000000      -0.00000000
Si       8.20287052       8.20287052       5.46858035       0.00000000       0.00000000       0.00000000
Si       8.20287052      10.93716070       8.20287052      -0.00000000       0.00000000      -0.00000000
Si      10.93716070       5.46858035       5.46858035       0.00000000      -0.00000000      -0.00000000
Si      10.93716070       8.20287052       8.20287052       0.00000000      -0.00000000      -0.00000000
Si      10.93716070      10.93716070      10.93716070       0.00000000       0.00000000       0.00000000
