64
Lattice="6.361811151234701 3.6729933806989186 14.54923876278408 -6.361811151234702 3.6729933806989186 14.54923876278408 0.0 -7.345986761397837 14.54923876278408" Properties=species:S:1:pos:R:3:forces:R:3 energy=-201.20276968643245 stress="-0.0003171595187816562 -1.3702104296762345e-17 1.7702520049739633e-17 -1.3702104296762345e-17 -0.0003171595187816194 1.8216178875164438e-17 1.7702520049739633e-17 1.8216178875164438e-17 -0.00025587654443372465" pbc="T T T"
Sb      -0.00000000       0.00000000      16.53616654       0.00000000      -0.00000000       0.01171258
Sb       3.18090558       1.83649669      23.81078592       0.00000000       0.00000000       0.01171258
Sb      -3.18090558       1.83649669      23.81078592      -0.00000000       0.00000000       0.01171258
Sb      -0.00000000       3.67299338      31.08540530      -0.00000000      -0.00000000       0.01171258
Sb      -0.00000000      -3.67299338      23.81078592       0.00000000      -0.00000000       0.01171258
Sb       3.18090558      -1.83649669      31.08540530      -0.00000000      -0.00000000       0.01171258
Sb      -3.18090558      -1.83649669      31.08540530      -0.00000000       0.00000000       0.01171258
Sb      -0.00000000       0.00000000      38.36002468      -0.00000000      -0.00000000       0.01171258
Sb      -0.00000000       0.00000000       5.28769161       0.00000000       0.00000000      -0.01171258
Sb       3.18090558       1.83649669      12.56231099       0.00000000       0.00000000      -0.01171258
Sb      -3.18090558       1.83649669      12.56231099       0.00000000       0.00000000      -0.01171258
Sb      -0.00000000       3.67299338      19.83693037       0.00000000       0.00000000      -0.01171258
Sb      -0.00000000      -3.67299338      12.56231099       0.00000000       0.00000000      -0.01171258
Sb       3.18090558      -1.83649669      19.83693037       0.00000000       0.00000000      -0.01171258
Sb      -3.18090558      -1.83649669      19.83693037       0.00000000       0.00000000      -0.01171258
Sb      -0.00000000      -0.00000000      27.11154975       0.00000000       0.00000000      -0.01171258
K       -0.00000000       0.00000000      10.91192907       0.00000000       0.00000000      -0.00000000
K        3.18090558       1.83649669      18.18654845      -0.00000000       0.00000000       0.00000000
K       -3.18090558       1.83649669      18.18654845       0.00000000       0.00000000       0.00000000
K       -0.00000000       3.67299338      25.46116783       0.00000000       0.00000000       0.00000000
K       -0.00000000      -3.67299338      18.18654845       0.00000000       0.00000000       0.00000000
K        3.18090558      -1.83649669      25.46116783       0.00000000       0.00000000       0.00000000
K       -3.18090558      -1.83649669      25.46116783       0.00000000       0.00000000       0.00000000
K       -0.00000000      -0.00000000      32.73578722       0.00000000      -0.00000000       0.00000000
K       -0.00000000       0.00000000       1.76833127       0.00000000      -0.00000000      -0.00676170
K        3.18090558       1.83649669       9.04295065       0.00000000      -0.00000000      -0.00676170
K       -3.18090558       1.83649669       9.04295065      -0.00000000       0.00000000      -0.00676170
K       -0.00000000       3.67299338      16.31757003      -0.00000000      -0.00000000      -0.00676170
K       -0.00000000      -3.67299338       9.04295065       0.00000000      -0.00000000      -0.00676170
K        3.18090558      -1.83649669      16.31757003      -0.00000000      -0.00000000      -0.00676170
K       -3.18090558      -1.83649669      16.31757003       0.00000000       0.00000000      -0.00676170
K       -0.00000000       0.00000000      23.59218941      -0.00000000       0.00000000      -0.00676170
K        0.00000000       0.00000000      20.05552688      -0.00000000      -0.00000000       0.00676170
K        3.18090558       1.83649669      27.33014626      -0.00000000      -0.00000000       0.00676170
K       -3.18090558       1.83649669      27.33014626      -0.00000000      -0.00000000       0.00676170
K       -0.00000000       3.67299338      34.60476564      -0.00000000      -0.00000000       0.00676170
K        0.00000000      -3.67299338      27.33014626      -0.00000000       0.00000000       0.00676170
K        3.18090558      -1.83649669      34.60476564      -0.00000000      -0.00000000       0.00676170
K       -3.18090558      -1.83649669      34.60476564      -0.00000000       0.00000000       0.00676170
K       -0.00000000       0.00000000      41.87938502      -0.00000000      -0.00000000       0.00676170
Au      -0.00000000       1.83649669       7.27461938      -0.00000000       0.00000000       0.00000000
Au       3.18090558       3.67299338      14.54923876      -0.00000000      -0.00000000      -0.00000000
Au      -3.18090558       3.67299338      14.54923876       0.00000000      -0.00000000      -0.00000000
Au      -0.00000000       5.50949007      21.82385814       0.00000000       0.00000000       0.00000000
Au      -0.00000000      -1.83649669      14.54923876       0.00000000       0.00000000       0.00000000
Au       3.18090558       0.00000000      21.82385814      -0.00000000      -0.00000000      -0.00000000
Au      -3.18090558       0.00000000      21.82385814      -0.00000000       0.00000000       0.00000000
Au      -0.00000000       1.83649669      29.09847753       0.00000000       0.00000000       0.00000000
Au      -1.59045279      -0.91824835       7.27461938      -0.00000000      -0.00000000       0.00000000
Au       1.59045279       0.91824835      14.54923876      -0.00000000      -0.00000000       0.00000000
Au      -4.77135836       0.91824835      14.54923876      -0.00000000      -0.00000000       0.00000000
Au      -1.59045279       2.75474504      21.82385814      -0.00000000      -0.00000000       0.00000000
Au      -1.59045279      -4.59124173      14.54923876       0.00000000       0.00000000      -0.00000000
Au       1.59045279      -2.75474504      21.82385814      -0.00000000       0.00000000       0.00000000
Au      -4.77135836      -2.75474504      21.82385814      -0.00000000      -0.00000000       0.00000000
Au      -1.59045279      -0.91824835      29.09847753       0.00000000       0.00000000       0.00000000
Au       1.59045279      -0.91824835       7.27461938       0.00000000      -0.00000000       0.00000000
Au       4.77135836       0.91824835      14.54923876       0.00000000       0.00000000       0.00000000
Au      -1.59045279       0.91824835      14.54923876       0.00000000      -0.00000000       0.00000000
Au       1.59045279       2.75474504      21.82385814       0.00000000       0.00000000      -0.00000000
Au       1.59045279      -4.59124173      14.54923876       0.00000000       0.00000000       0.00000000
Au       4.77135836      -2.75474504      21.82385814       0.00000000      -0.00000000       0.00000000
Au      -1.59045279      -2.75474504      21.82385814      -0.00000000       0.00000000      -0.00000000
Au       1.59045279      -0.91824835      29.09847753      -0.00000000       0.00000000      -0.00000000
