 128  128
1 1
    12.837257740292001    -0.000000000000000     0.000000000000000
     0.000000000000001    12.837257740291996     0.000000000000002
    -0.000000000000000    -0.000000000000001    12.837257740292003
1 2
     0.439933201429630    -0.092886077106750    -0.092886077106750
     0.092891026854219    -0.178156083850036    -0.184527999832003
     0.092891026854219    -0.184527999832003    -0.178156083850036
1 3
     0.195162885821049     0.000000000000000     0.000000000000000
     0.000000000000000     0.002872621298570    -0.029159669442571
    -0.000000000000000    -0.029159669442571     0.002872621298570
1 4
     0.439933201429630     0.092886077106750     0.092886077106750
    -0.092891026854219    -0.178156083850036    -0.184527999832003
    -0.092891026854219    -0.184527999832003    -0.178156083850036
1 5
    -0.178156083850036     0.092891026854219    -0.184527999832003
    -0.092886077106750     0.439933201429630    -0.092886077106750
    -0.184527999832003     0.092891026854219    -0.178156083850036
1 6
    -0.016790604072665     0.030843997795357    -0.013201153274667
     0.030843997795357    -0.016790604072665    -0.013201153274667
    -0.020705854320095    -0.020705854320095     0.001043689609031
1 7
    -0.016790604072665     0.013201153274667    -0.030843997795357
     0.020705854320095     0.001043689609031    -0.020705854320095
    -0.030843997795357    -0.013201153274667    -0.016790604072665
1 8
    -0.178156083850036     0.184527999832003    -0.092891026854219
     0.184527999832003    -0.178156083850036     0.092891026854219
     0.092886077106750    -0.092886077106750     0.439933201429630
1 9
     0.002872621298570     0.000000000000000    -0.029159669442571
    -0.000000000000000     0.195162885821049    -0.000000000000000
    -0.029159669442571    -0.000000000000000     0.002872621298570
1 10
     0.001043689609031     0.020705854320095    -0.020705854320095
     0.013201153274667    -0.016790604072665    -0.030843997795357
    -0.013201153274667    -0.030843997795357    -0.016790604072665
1 11
     0.002872621298570     0.029159669442571    -0.000000000000000
     0.029159669442571     0.002872621298570     0.000000000000000
    -0.000000000000000    -0.000000000000000     0.195162885821049
1 12
     0.001046518036156     0.013202921041620    -0.013202921041620
     0.020706738203571    -0.016784947218416    -0.030838164164412
    -0.020706738203571    -0.030838164164412    -0.016784947218416
1 13
    -0.178156083850036    -0.092891026854219    -0.184527999832003
     0.092886077106750     0.439933201429630     0.092886077106750
    -0.184527999832003    -0.092891026854219    -0.178156083850036
1 14
    -0.178156083850036     0.184527999832003     0.092891026854219
     0.184527999832003    -0.178156083850036    -0.092891026854219
    -0.092886077106750     0.092886077106750     0.439933201429630
1 15
    -0.016784947218416     0.020706738203571    -0.030838164164412
     0.013202921041620     0.001046518036156    -0.013202921041620
    -0.030838164164412    -0.020706738203571    -0.016784947218416
1 16
    -0.016784947218416     0.030838164164412    -0.020706738203571
     0.030838164164412    -0.016784947218416    -0.020706738203571
    -0.013202921041620    -0.013202921041620     0.001046518036156
1 17
    -0.178156083850036    -0.184527999832003     0.092891026854219
    -0.184527999832003    -0.178156083850036     0.092891026854219
    -0.092886077106750    -0.092886077106750     0.439933201429630
1 18
    -0.016790604072665    -0.013201153274667     0.030843997795357
    -0.020705854320095     0.001043689609031    -0.020705854320095
     0.030843997795357    -0.013201153274667    -0.016790604072665
1 19
    -0.016790604072665    -0.030843997795357     0.013201153274667
    -0.030843997795357    -0.016790604072665    -0.013201153274667
     0.020705854320095    -0.020705854320095     0.001043689609031
1 20
    -0.178156083850036    -0.092891026854219     0.184527999832003
     0.092886077106750     0.439933201429630    -0.092886077106750
     0.184527999832003     0.092891026854219    -0.178156083850036
1 21
     0.001043689609031    -0.020705854320095    -0.020705854320095
    -0.013201153274667    -0.016790604072665     0.030843997795357
    -0.013201153274667     0.030843997795357    -0.016790604072665
1 22
    -0.009572811603703    -0.000000000000000    -0.000000000000000
    -0.000000000000000    -0.009572811603703    -0.000000000000000
     0.000000000000000     0.000000000000000    -0.009572811603703
1 23
     0.001043689609031     0.020705854320095     0.020705854320095
     0.013201153274667    -0.016790604072665     0.030843997795357
     0.013201153274667     0.030843997795357    -0.016790604072665
1 24
    -0.007986771093502     0.000000000000000     0.000000000000000
    -0.000000000000000    -0.022588879678395     0.000002474873734
     0.000000000000000     0.000002474873734    -0.022588879678395
1 25
    -0.016790604072665    -0.030843997795357    -0.013201153274667
    -0.030843997795357    -0.016790604072665     0.013201153274667
    -0.020705854320095     0.020705854320095     0.001043689609031
1 26
    -0.016790604072665     0.013201153274667     0.030843997795357
     0.020705854320095     0.001043689609031     0.020705854320095
     0.030843997795357     0.013201153274667    -0.016790604072665
1 27
    -0.010957857011353    -0.000260745625563     0.000846583593776
    -0.000260745625563    -0.010957857011353     0.000846583593776
    -0.000846053263690    -0.000846053263690    -0.013599784722561
1 28
    -0.010957857011353    -0.000846583593776     0.000260745625563
     0.000846053263690    -0.013599784722561    -0.000846053263690
     0.000260745625563     0.000846583593776    -0.010957857011353
1 29
     0.439933201429630     0.092886077106750    -0.092886077106750
    -0.092891026854219    -0.178156083850036     0.184527999832003
     0.092891026854219     0.184527999832003    -0.178156083850036
1 30
    -0.022588879678395    -0.000000000000000     0.000002474873734
    -0.000000000000000    -0.007986771093502    -0.000000000000000
     0.000002474873734     0.000000000000000    -0.022588879678395
1 31
    -0.013599784722561     0.000846053263690    -0.000846053263690
    -0.000846583593776    -0.010957857011353     0.000260745625563
     0.000846583593776     0.000260745625563    -0.010957857011353
1 32
    -0.022588879678395    -0.000002474873734    -0.000000000000000
    -0.000002474873734    -0.022588879678395    -0.000000000000000
     0.000000000000000     0.000000000000000    -0.007986771093502
1 33
     0.002872621298570    -0.029159669442571     0.000000000000000
    -0.029159669442571     0.002872621298570     0.000000000000000
     0.000000000000000    -0.000000000000000     0.195162885821049
1 34
     0.001043689609031    -0.020705854320095     0.020705854320095
    -0.013201153274667    -0.016790604072665    -0.030843997795357
     0.013201153274667    -0.030843997795357    -0.016790604072665
1 35
     0.002872621298570     0.000000000000000     0.029159669442571
     0.000000000000000     0.195162885821049     0.000000000000000
     0.029159669442571    -0.000000000000000     0.002872621298570
1 36
     0.001046518036156    -0.013202921041620     0.013202921041620
    -0.020706738203571    -0.016784947218416    -0.030838164164412
     0.020706738203571    -0.030838164164412    -0.016784947218416
1 37
    -0.016790604072665    -0.013201153274667    -0.030843997795357
    -0.020705854320095     0.001043689609031     0.020705854320095
    -0.030843997795357     0.013201153274667    -0.016790604072665
1 38
    -0.016790604072665     0.030843997795357     0.013201153274667
     0.030843997795357    -0.016790604072665     0.013201153274667
     0.020705854320095     0.020705854320095     0.001043689609031
1 39
    -0.010957857011353     0.000846583593776    -0.000260745625563
    -0.000846053263690    -0.013599784722561    -0.000846053263690
    -0.000260745625563     0.000846583593776    -0.010957857011353
1 40
    -0.010957857011353     0.000260745625563    -0.000846583593776
     0.000260745625563    -0.010957857011353     0.000846583593776
     0.000846053263690    -0.000846053263690    -0.013599784722561
1 41
     0.195162885821049     0.000000000000000     0.000000000000000
     0.000000000000000     0.002872621298570     0.029159669442571
    -0.000000000000000     0.029159669442571     0.002872621298570
1 42
    -0.013599784722561    -0.000846053263690    -0.000846053263690
     0.000846583593776    -0.010957857011353    -0.000260745625563
     0.000846583593776    -0.000260745625563    -0.010957857011353
1 43
    -0.011332093275296    -0.000000000000000     0.000000000000000
    -0.000000000000000    -0.011332093275296    -0.000000000000000
     0.000000000000000     0.000000000000000    -0.011332093275296
1 44
    -0.013599784722561     0.000846053263690     0.000846053263690
    -0.000846583593776    -0.010957857011353    -0.000260745625563
    -0.000846583593776    -0.000260745625563    -0.010957857011353
1 45
    -0.016784947218416    -0.020706738203571    -0.030838164164412
    -0.013202921041620     0.001046518036156     0.013202921041620
    -0.030838164164412     0.020706738203571    -0.016784947218416
1 46
    -0.010957857011353     0.000260745625563     0.000846583593776
     0.000260745625563    -0.010957857011353    -0.000846583593776
    -0.000846053263690     0.000846053263690    -0.013599784722561
1 47
    -0.010957857011353    -0.000846583593776    -0.000260745625563
     0.000846053263690    -0.013599784722561     0.000846053263690
    -0.000260745625563    -0.000846583593776    -0.010957857011353
1 48
    -0.016784947218416     0.030838164164412     0.020706738203571
     0.030838164164412    -0.016784947218416     0.020706738203571
     0.013202921041620     0.013202921041620     0.001046518036156
1 49
    -0.178156083850036    -0.184527999832003    -0.092891026854219
    -0.184527999832003    -0.178156083850036    -0.092891026854219
     0.092886077106750     0.092886077106750     0.439933201429630
1 50
    -0.178156083850036     0.092891026854219     0.184527999832003
    -0.092886077106750     0.439933201429630     0.092886077106750
     0.184527999832003    -0.092891026854219    -0.178156083850036
1 51
    -0.016784947218416    -0.030838164164412     0.020706738203571
    -0.030838164164412    -0.016784947218416    -0.020706738203571
     0.013202921041620    -0.013202921041620     0.001046518036156
1 52
    -0.016784947218416    -0.020706738203571     0.030838164164412
    -0.013202921041620     0.001046518036156    -0.013202921041620
     0.030838164164412    -0.020706738203571    -0.016784947218416
1 53
     0.439933201429630    -0.092886077106750     0.092886077106750
     0.092891026854219    -0.178156083850036     0.184527999832003
    -0.092891026854219     0.184527999832003    -0.178156083850036
1 54
    -0.022588879678395     0.000002474873734    -0.000000000000000
     0.000002474873734    -0.022588879678395    -0.000000000000000
     0.000000000000000     0.000000000000000    -0.007986771093502
1 55
    -0.013599784722561    -0.000846053263690     0.000846053263690
     0.000846583593776    -0.010957857011353     0.000260745625563
    -0.000846583593776     0.000260745625563    -0.010957857011353
1 56
    -0.022588879678395    -0.000000000000000    -0.000002474873734
    -0.000000000000000    -0.007986771093502    -0.000000000000000
    -0.000002474873734     0.000000000000000    -0.022588879678395
1 57
    -0.016784947218416    -0.030838164164412    -0.020706738203571
    -0.030838164164412    -0.016784947218416     0.020706738203571
    -0.013202921041620     0.013202921041620     0.001046518036156
1 58
    -0.010957857011353     0.000846583593776     0.000260745625563
    -0.000846053263690    -0.013599784722561     0.000846053263690
     0.000260745625563    -0.000846583593776    -0.010957857011353
1 59
    -0.010957857011353    -0.000260745625563    -0.000846583593776
    -0.000260745625563    -0.010957857011353    -0.000846583593776
     0.000846053263690     0.000846053263690    -0.013599784722561
1 60
    -0.016784947218416     0.020706738203571     0.030838164164412
     0.013202921041620     0.001046518036156     0.013202921041620
     0.030838164164412     0.020706738203571    -0.016784947218416
1 61
     0.001046518036156    -0.013202921041620    -0.013202921041620
    -0.020706738203571    -0.016784947218416     0.030838164164412
    -0.020706738203571     0.030838164164412    -0.016784947218416
1 62
    -0.007986771093502    -0.000000000000000     0.000000000000000
    -0.000000000000000    -0.022588879678395    -0.000002474873734
     0.000000000000000    -0.000002474873734    -0.022588879678395
1 63
     0.001046518036156     0.013202921041620     0.013202921041620
     0.020706738203571    -0.016784947218416     0.030838164164412
     0.020706738203571     0.030838164164412    -0.016784947218416
1 64
    -0.009569983176579    -0.000000000000000     0.000000000000000
    -0.000000000000000    -0.009569983176579    -0.000000000000000
     0.000000000000000     0.000000000000000    -0.009569983176579
1 65
    -3.142054791599926    -2.100378845904710    -2.100378845904710
    -2.100378845904710    -3.142054791599926    -2.100378845904710
    -2.100378845904710    -2.100378845904710    -3.142054791599927
1 66
    -3.142054791599926     2.100378845904710     2.100378845904710
     2.100378845904710    -3.142054791599926    -2.100378845904710
     2.100378845904710    -2.100378845904710    -3.142054791599927
1 67
    -0.226315535726394    -0.042948428452404    -0.042948428452404
    -0.042947367792232    -0.019620445410974    -0.009488135566656
    -0.042947367792232    -0.009488135566656    -0.019620445410974
1 68
    -0.226315535726394     0.042948428452404     0.042948428452404
     0.042947367792232    -0.019620445410974    -0.009488135566656
     0.042947367792232    -0.009488135566656    -0.019620445410974
1 69
    -3.142054791599927     2.100378845904710    -2.100378845904710
     2.100378845904709    -3.142054791599925     2.100378845904708
    -2.100378845904710     2.100378845904710    -3.142054791599927
1 70
     0.033910012798582    -0.044406836188601     0.029251770100820
    -0.044406836188601     0.033910012798582     0.029251770100820
     0.029248588120305     0.029248588120305     0.003011214227683
1 71
     0.017551097415831    -0.020892707287024     0.020892707287024
    -0.020892353733633    -0.001637482528533     0.009376943025315
     0.020892353733633     0.009376943025315    -0.001637482528533
1 72
     0.033910012798582    -0.029251770100820     0.044406836188601
    -0.029248588120305     0.003011214227683     0.029248588120305
     0.044406836188601     0.029251770100820     0.033910012798582
1 73
    -0.019620445410974    -0.042947367792232    -0.009488135566656
    -0.042948428452404    -0.226315535726394    -0.042948428452404
    -0.009488135566656    -0.042947367792232    -0.019620445410974
1 74
    -0.001637482528533    -0.020892353733633     0.009376943025315
    -0.020892707287024     0.017551097415831     0.020892707287024
     0.009376943025315     0.020892353733633    -0.001637482528533
1 75
    -0.001637482528533    -0.009376943025315     0.020892353733633
    -0.009376943025315    -0.001637482528533     0.020892353733633
     0.020892707287024     0.020892707287024     0.017551097415831
1 76
    -0.019620445410974     0.009488135566656     0.042947367792232
     0.009488135566656    -0.019620445410974    -0.042947367792232
     0.042948428452404    -0.042948428452404    -0.226315535726394
1 77
    -0.019620445410974     0.042947367792232    -0.009488135566656
     0.042948428452404    -0.226315535726394     0.042948428452404
    -0.009488135566656     0.042947367792232    -0.019620445410974
1 78
     0.003011214227683    -0.029248588120305     0.029248588120305
    -0.029251770100820     0.033910012798582     0.044406836188601
     0.029251770100820     0.044406836188601     0.033910012798582
1 79
    -0.019620445410974     0.009488135566656    -0.042947367792232
     0.009488135566656    -0.019620445410974     0.042947367792232
    -0.042948428452404     0.042948428452404    -0.226315535726394
1 80
     0.005201477482408    -0.023688784276530     0.023688784276530
    -0.023688784276530     0.005201477482408     0.023688784276530
     0.023688784276530     0.023688784276530     0.005201477482408
1 81
    -3.142054791599927    -2.100378845904710     2.100378845904710
    -2.100378845904709    -3.142054791599925     2.100378845904709
     2.100378845904710     2.100378845904710    -3.142054791599927
1 82
     0.033910012798582     0.029251770100820    -0.044406836188601
     0.029248588120305     0.003011214227683     0.029248588120305
    -0.044406836188601     0.029251770100820     0.033910012798582
1 83
     0.017551097415831     0.020892707287024    -0.020892707287024
     0.020892353733633    -0.001637482528533     0.009376943025315
    -0.020892353733633     0.009376943025315    -0.001637482528533
1 84
     0.033910012798582     0.044406836188601    -0.029251770100820
     0.044406836188601     0.033910012798582     0.029251770100820
    -0.029248588120305     0.029248588120305     0.003011214227683
1 85
     0.003011214227683     0.029248588120305     0.029248588120305
     0.029251770100820     0.033910012798582    -0.044406836188601
     0.029251770100820    -0.044406836188601     0.033910012798582
1 86
     0.011207996035197    -0.000628617928475    -0.000628617928475
    -0.000628617928475     0.011207996035197    -0.000628617928475
    -0.000628617928475    -0.000628617928475     0.011207996035197
1 87
     0.011207996035197     0.000628617928475     0.000628617928475
     0.000628617928475     0.011207996035197    -0.000628617928475
     0.000628617928475    -0.000628617928475     0.011207996035197
1 88
     0.003011214227683    -0.029248588120305    -0.029248588120305
    -0.029251770100820     0.033910012798582    -0.044406836188601
    -0.029251770100820    -0.044406836188601     0.033910012798582
1 89
    -0.001637482528533     0.020892353733633     0.009376943025315
     0.020892707287024     0.017551097415831    -0.020892707287024
     0.009376943025315    -0.020892353733633    -0.001637482528533
1 90
     0.011207996035197     0.000628617928475    -0.000628617928475
     0.000628617928475     0.011207996035197     0.000628617928475
    -0.000628617928475     0.000628617928475     0.011207996035197
1 91
    -0.001637482528533    -0.009376943025315    -0.020892353733633
    -0.009376943025315    -0.001637482528533    -0.020892353733633
    -0.020892707287024    -0.020892707287024     0.017551097415831
1 92
     0.005220569365500     0.001315925719788    -0.001315925719788
     0.001319284476999     0.015224716105727    -0.003240316824787
    -0.001319284476999    -0.003240316824787     0.015224716105728
1 93
     0.033910012798582     0.044406836188601     0.029251770100820
     0.044406836188601     0.033910012798582    -0.029251770100820
     0.029248588120305    -0.029248588120305     0.003011214227683
1 94
     0.033910012798582    -0.029251770100820    -0.044406836188601
    -0.029248588120305     0.003011214227683    -0.029248588120305
    -0.044406836188601    -0.029251770100820     0.033910012798582
1 95
     0.015224716105728     0.001319284476999    -0.003240316824787
     0.001315925719788     0.005220569365500    -0.001315925719788
    -0.003240316824787    -0.001319284476999     0.015224716105728
1 96
     0.015224716105728     0.003240316824787    -0.001319284476999
     0.003240316824787     0.015224716105727    -0.001319284476999
    -0.001315925719788    -0.001315925719788     0.005220569365500
1 97
    -0.019620445410974    -0.009488135566656    -0.042947367792232
    -0.009488135566656    -0.019620445410974    -0.042947367792232
    -0.042948428452404    -0.042948428452404    -0.226315535726394
1 98
    -0.001637482528533     0.009376943025315    -0.020892353733633
     0.009376943025315    -0.001637482528533     0.020892353733633
    -0.020892707287024     0.020892707287024     0.017551097415831
1 99
    -0.001637482528533     0.020892353733633    -0.009376943025315
     0.020892707287024     0.017551097415831     0.020892707287024
    -0.009376943025315     0.020892353733633    -0.001637482528533
1 100
    -0.019620445410974     0.042947367792232     0.009488135566656
     0.042948428452404    -0.226315535726394    -0.042948428452404
     0.009488135566656    -0.042947367792232    -0.019620445410974
1 101
    -0.001637482528533     0.009376943025315     0.020892353733633
     0.009376943025315    -0.001637482528533    -0.020892353733633
     0.020892707287024    -0.020892707287024     0.017551097415831
1 102
     0.011207996035197    -0.000628617928475     0.000628617928475
    -0.000628617928475     0.011207996035197     0.000628617928475
     0.000628617928475     0.000628617928475     0.011207996035197
1 103
    -0.001637482528533    -0.020892353733633    -0.009376943025315
    -0.020892707287024     0.017551097415831    -0.020892707287024
    -0.009376943025315    -0.020892353733633    -0.001637482528533
1 104
     0.005220569365500    -0.001315925719788     0.001315925719788
    -0.001319284476999     0.015224716105727    -0.003240316824787
     0.001319284476999    -0.003240316824787     0.015224716105728
1 105
     0.017551097415831     0.020892707287024     0.020892707287024
     0.020892353733633    -0.001637482528533    -0.009376943025315
     0.020892353733633    -0.009376943025315    -0.001637482528533
1 106
     0.017551097415831    -0.020892707287024    -0.020892707287024
    -0.020892353733633    -0.001637482528533    -0.009376943025315
    -0.020892353733633    -0.009376943025315    -0.001637482528533
1 107
     0.011810804566159    -0.000879994389187    -0.000879994389187
    -0.000879994389187     0.011810804566159    -0.000879994389187
    -0.000879994389187    -0.000879994389187     0.011810804566159
1 108
     0.011810804566159     0.000879994389187     0.000879994389187
     0.000879994389187     0.011810804566159    -0.000879994389187
     0.000879994389187    -0.000879994389187     0.011810804566159
1 109
    -0.226315535726394     0.042948428452404    -0.042948428452404
     0.042947367792232    -0.019620445410974     0.009488135566656
    -0.042947367792232     0.009488135566656    -0.019620445410974
1 110
     0.015224716105728    -0.001319284476999    -0.003240316824787
    -0.001315925719788     0.005220569365500     0.001315925719788
    -0.003240316824787     0.001319284476999     0.015224716105728
1 111
     0.011810804566159     0.000879994389187    -0.000879994389187
     0.000879994389187     0.011810804566159     0.000879994389187
    -0.000879994389187     0.000879994389187     0.011810804566159
1 112
     0.015224716105728     0.003240316824787     0.001319284476999
     0.003240316824787     0.015224716105727     0.001319284476999
     0.001315925719788     0.001315925719788     0.005220569365500
1 113
    -0.019620445410974    -0.009488135566656     0.042947367792232
    -0.009488135566656    -0.019620445410974     0.042947367792232
     0.042948428452404     0.042948428452404    -0.226315535726394
1 114
     0.003011214227683     0.029248588120305    -0.029248588120305
     0.029251770100820     0.033910012798582     0.044406836188601
    -0.029251770100820     0.044406836188601     0.033910012798582
1 115
    -0.019620445410974    -0.042947367792232     0.009488135566656
    -0.042948428452404    -0.226315535726394     0.042948428452404
     0.009488135566656     0.042947367792232    -0.019620445410974
1 116
     0.005201477482408     0.023688784276530    -0.023688784276530
     0.023688784276530     0.005201477482408     0.023688784276530
    -0.023688784276530     0.023688784276530     0.005201477482408
1 117
     0.033910012798582     0.029251770100820     0.044406836188601
     0.029248588120305     0.003011214227683    -0.029248588120305
     0.044406836188601    -0.029251770100820     0.033910012798582
1 118
     0.033910012798582    -0.044406836188601    -0.029251770100820
    -0.044406836188601     0.033910012798582    -0.029251770100820
    -0.029248588120305    -0.029248588120305     0.003011214227683
1 119
     0.015224716105728    -0.003240316824787     0.001319284476999
    -0.003240316824787     0.015224716105727    -0.001319284476999
     0.001315925719788    -0.001315925719788     0.005220569365500
1 120
     0.015224716105728    -0.001319284476999     0.003240316824787
    -0.001315925719788     0.005220569365500    -0.001315925719788
     0.003240316824787    -0.001319284476999     0.015224716105728
1 121
    -0.226315535726394    -0.042948428452404     0.042948428452404
    -0.042947367792232    -0.019620445410974     0.009488135566656
     0.042947367792232     0.009488135566656    -0.019620445410974
1 122
     0.015224716105728    -0.003240316824787    -0.001319284476999
    -0.003240316824787     0.015224716105727     0.001319284476999
    -0.001315925719788     0.001315925719788     0.005220569365500
1 123
     0.011810804566159    -0.000879994389187     0.000879994389187
    -0.000879994389187     0.011810804566159     0.000879994389187
     0.000879994389187     0.000879994389187     0.011810804566159
1 124
     0.015224716105728     0.001319284476999     0.003240316824787
     0.001315925719788     0.005220569365500     0.001315925719788
     0.003240316824787     0.001319284476999     0.015224716105728
1 125
     0.005201477482408     0.023688784276530     0.023688784276530
     0.023688784276530     0.005201477482408    -0.023688784276530
     0.023688784276530    -0.023688784276530     0.005201477482408
1 126
     0.005220569365500    -0.001315925719788    -0.001315925719788
    -0.001319284476999     0.015224716105727     0.003240316824787
    -0.001319284476999     0.003240316824787     0.015224716105728
1 127
     0.005220569365500     0.001315925719788     0.001315925719788
     0.001319284476999     0.015224716105727     0.003240316824787
     0.001319284476999     0.003240316824787     0.015224716105728
1 128
     0.005201477482408    -0.023688784276530    -0.023688784276530
    -0.023688784276530     0.005201477482408    -0.023688784276530
    -0.023688784276530    -0.023688784276530     0.005201477482408
2 1
     0.439933201429630     0.092886077106750     0.092886077106750
    -0.092891026854219    -0.178156083850036    -0.184527999832003
    -0.092891026854219    -0.184527999832003    -0.178156083850036
2 2
    12.837257740291996    -0.000000000000002    -0.000000000000001
     0.000000000000001    12.837257740292003    -0.000000000000000
    -0.000000000000000     0.000000000000000    12.837257740292001
2 3
     0.439933201429630    -0.092886077106750    -0.092886077106750
     0.092891026854219    -0.178156083850036    -0.184527999832003
     0.092891026854219    -0.184527999832003    -0.178156083850036
2 4
     0.195162885821049     0.000000000000000     0.000000000000000
     0.000000000000000     0.002872621298570    -0.029159669442571
    -0.000000000000000    -0.029159669442571     0.002872621298570
2 5
    -0.178156083850036     0.184527999832003    -0.092891026854219
     0.184527999832003    -0.178156083850036     0.092891026854219
     0.092886077106750    -0.092886077106750     0.439933201429630
2 6
    -0.178156083850036     0.092891026854219    -0.184527999832003
    -0.092886077106750     0.439933201429630    -0.092886077106750
    -0.184527999832003     0.092891026854219    -0.178156083850036
2 7
    -0.016790604072665     0.030843997795357    -0.013201153274667
     0.030843997795357    -0.016790604072665    -0.013201153274667
    -0.020705854320095    -0.020705854320095     0.001043689609031
2 8
    -0.016790604072665     0.013201153274667    -0.030843997795357
     0.020705854320095     0.001043689609031    -0.020705854320095
    -0.030843997795357    -0.013201153274667    -0.016790604072665
2 9
     0.001046518036156     0.013202921041620    -0.013202921041620
     0.020706738203571    -0.016784947218416    -0.030838164164412
    -0.020706738203571    -0.030838164164412    -0.016784947218416
2 10
     0.002872621298570    -0.000000000000000    -0.029159669442571
     0.000000000000000     0.195162885821049    -0.000000000000000
    -0.029159669442571    -0.000000000000000     0.002872621298570
2 11
     0.001043689609031     0.020705854320095    -0.020705854320095
     0.013201153274667    -0.016790604072665    -0.030843997795357
    -0.013201153274667    -0.030843997795357    -0.016790604072665
2 12
     0.002872621298570     0.029159669442571    -0.000000000000000
     0.029159669442571     0.002872621298570    -0.000000000000000
    -0.000000000000000    -0.000000000000000     0.195162885821049
2 13
    -0.016784947218416     0.030838164164412    -0.020706738203571
     0.030838164164412    -0.016784947218416    -0.020706738203571
    -0.013202921041620    -0.013202921041620     0.001046518036156
2 14
    -0.178156083850036    -0.092891026854219    -0.184527999832003
     0.092886077106750     0.439933201429630     0.092886077106750
    -0.184527999832003    -0.092891026854219    -0.178156083850036
2 15
    -0.178156083850036     0.184527999832003     0.092891026854219
     0.184527999832003    -0.178156083850036    -0.092891026854219
    -0.092886077106750     0.092886077106750     0.439933201429630
2 16
    -0.016784947218416     0.020706738203571    -0.030838164164412
     0.013202921041620     0.001046518036156    -0.013202921041620
    -0.030838164164412    -0.020706738203571    -0.016784947218416
2 17
    -0.178156083850036    -0.092891026854219     0.184527999832003
     0.092886077106750     0.439933201429630    -0.092886077106750
     0.184527999832003     0.092891026854219    -0.178156083850036
2 18
    -0.178156083850036    -0.184527999832003     0.092891026854219