phonopy:
  version: "2.44.0"
  frequency_unit_conversion_factor: 15.633302
  symmetry_tolerance: 1.00000e-05
  configuration:
    cell_filename: "POSCAR"
    create_displacements: ".true."
    dim: "1 1 1"

physical_unit:
  atomic_mass: "AMU"
  length: "angstrom"

space_group:
  type: "P1"
  number: 1
  Hall_symbol: "P 1"

supercell_matrix:
- [   1,   0,   0 ]
- [   0,   1,   0 ]
- [   0,   0,   1 ]

primitive_cell:
  lattice:
  - [    14.971807321250118,     0.000002265030765,     0.000000000000000 ] # a
  - [    -7.485901721911001,    12.965930334768640,     0.000000000000000 ] # b
  - [     0.000000000000000,     0.000000000000000,    25.000000000000000 ] # c
  points:
  - symbol: C # 1
    coordinates: [  0.148635982082473,  0.067606234514477,  0.426898370365496 ]
    mass: 12.010700
  - symbol: C # 2
    coordinates: [  0.067617034168377,  0.175772613051701,  0.426901332574752 ]
    mass: 12.010700
  - symbol: C # 3
    coordinates: [  0.418916976844140,  0.040540781314226,  0.427471325670341 ]
    mass: 12.010700
  - symbol: C # 4
    coordinates: [  0.337831749760562,  0.148636459779711,  0.427060284492701 ]
    mass: 12.010700
  - symbol: C # 5
    coordinates: [  0.238708557175215,  0.058558282266362,  0.427006355266062 ]
    mass: 12.010700
  - symbol: C # 6
    coordinates: [  0.256797531377147,  0.256788424843350,  0.426896344997187 ]
    mass: 12.010700
  - symbol: C # 7
    coordinates: [  0.157681979628061,  0.166720889195096,  0.426844335647109 ]
    mass: 12.010700
  - symbol: C # 8
    coordinates: [  0.175772493220215,  0.364955810677721,  0.427058646271315 ]
    mass: 12.010700
  - symbol: C # 9
    coordinates: [  0.076658645500740,  0.274884024531620,  0.427010889014909 ]
    mass: 12.010700
  - symbol: C # 10
    coordinates: [  0.094681388003298,  0.473064381415465,  0.427472201318241 ]
    mass: 12.010700
  - symbol: C # 11
    coordinates: [  0.995568394362147,  0.382984762339917,  0.427444585522770 ]
    mass: 12.010700
  - symbol: C # 12
    coordinates: [  0.013557749868690,  0.581147158622705,  0.427770595131240 ]
    mass: 12.010700
  - symbol: C # 13
    coordinates: [  0.689229639643930,  0.013591691466496,  0.427654121180406 ]
    mass: 12.010700
  - symbol: C # 14
    coordinates: [  0.608144033636032,  0.121662334415677,  0.427697249304401 ]
    mass: 12.010700
  - symbol: C # 15
    coordinates: [  0.509019646698185,  0.031557379817913,  0.427680443971110 ]
    mass: 12.010700
  - symbol: C # 16
    coordinates: [  0.527039946879732,  0.229726940466444,  0.427470427291215 ]
    mass: 12.010700
  - symbol: C # 17
    coordinates: [  0.427916804358212,  0.139625479645909,  0.427304784292305 ]
    mass: 12.010700
  - symbol: C # 18
    coordinates: [  0.445986287548450,  0.337836074543164,  0.427214180259330 ]
    mass: 12.010700
  - symbol: C # 19
    coordinates: [  0.346870752718740,  0.247750461194868,  0.427005858928629 ]
    mass: 12.010700
  - symbol: C # 20
    coordinates: [  0.364945141665121,  0.445987205523676,  0.427211863066577 ]
    mass: 12.010700
  - symbol: C # 21
    coordinates: [  0.265850071161680,  0.355911730238862,  0.427003496907521 ]
    mass: 12.010700
  - symbol: C # 22
    coordinates: [  0.283859593174828,  0.554121462402667,  0.427475269394641 ]
    mass: 12.010700
  - symbol: C # 23
    coordinates: [  0.184775945147295,  0.464043094266802,  0.427305016588317 ]
    mass: 12.010700
  - symbol: C # 24
    coordinates: [  0.202747101623659,  0.662223533253593,  0.427699323432367 ]
    mass: 12.010700
  - symbol: C # 25
    coordinates: [  0.103658519690322,  0.572134564885243,  0.427666955292046 ]
    mass: 12.010700
  - symbol: C # 26
    coordinates: [  0.121620320970181,  0.770312135405784,  0.427553868789324 ]
    mass: 12.010700
  - symbol: C # 27
    coordinates: [  0.022534965007011,  0.680220321533297,  0.427694889731971 ]
    mass: 12.010700
  - symbol: C # 28
    coordinates: [  0.040507444980441,  0.878419985608863,  0.427209885057434 ]
    mass: 12.010700
  - symbol: C # 29
    coordinates: [  0.878424189876209,  0.094709960803369,  0.427216564452371 ]
    mass: 12.010700
  - symbol: C # 30
    coordinates: [  0.779321912827439,  0.004614938640032,  0.427440006409589 ]
    mass: 12.010700
  - symbol: C # 31
    coordinates: [  0.797356537766385,  0.202797244536605,  0.427561792371219 ]
    mass: 12.010700
  - symbol: C # 32
    coordinates: [  0.698244824094475,  0.112695114265942,  0.427662904409105 ]
    mass: 12.010700
  - symbol: C # 33
    coordinates: [  0.716249740457459,  0.310851389908815,  0.427772171774844 ]
    mass: 12.010700
  - symbol: C # 34
    coordinates: [  0.617136922476956,  0.220750514684957,  0.427666897177853 ]
    mass: 12.010700
  - symbol: C # 35
    coordinates: [  0.635171702585917,  0.418941550924361,  0.427674429322436 ]
    mass: 12.010700
  - symbol: C # 36
    coordinates: [  0.536072980463563,  0.328842828444984,  0.427441834135596 ]
    mass: 12.010700
  - symbol: C # 37
    coordinates: [  0.554104299450633,  0.527056629962142,  0.427555697550067 ]
    mass: 12.010700
  - symbol: C # 38
    coordinates: [  0.455025260689800,  0.436959571102326,  0.427306724566178 ]
    mass: 12.010700
  - symbol: C # 39
    coordinates: [  0.473029689268965,  0.635184067595633,  0.427657260814522 ]
    mass: 12.010700
  - symbol: C # 40
    coordinates: [  0.373948497637538,  0.545090024461926,  0.427440937282822 ]
    mass: 12.010700
  - symbol: C # 41
    coordinates: [  0.391934872266109,  0.743295556751766,  0.427811844046376 ]
    mass: 12.010700
  - symbol: C # 42
    coordinates: [  0.292845477218946,  0.653203318993178,  0.427687558071172 ]
    mass: 12.010700
  - symbol: C # 43
    coordinates: [  0.310813321721618,  0.851383676721749,  0.427649349947219 ]
    mass: 12.010700
  - symbol: C # 44
    coordinates: [  0.211722400869967,  0.761292970381714,  0.427657569639355 ]
    mass: 12.010700
  - symbol: C # 45
    coordinates: [  0.229691880587920,  0.959470168391015,  0.427212089862333 ]
    mass: 12.010700
  - symbol: C # 46
    coordinates: [  0.130591823954098,  0.869386851994035,  0.427304786499310 ]
    mass: 12.010700
  - symbol: C # 47
    coordinates: [  0.049530351273485,  0.977530454184480,  0.427004783835147 ]
    mass: 12.010700
  - symbol: C # 48
    coordinates: [  0.968503363983467,  0.085694197402667,  0.427008232202399 ]
    mass: 12.010700
  - symbol: C # 49
    coordinates: [  0.986573645901016,  0.283908074029679,  0.427219148422367 ]
    mass: 12.010700
  - symbol: C # 50
    coordinates: [  0.887451927241384,  0.193817399320114,  0.427312532417896 ]
    mass: 12.010700
  - symbol: C # 51
    coordinates: [  0.905470131711010,  0.391981295141696,  0.427679521400409 ]
    mass: 12.010700
  - symbol: C # 52
    coordinates: [  0.806353585631401,  0.301882640612316,  0.427700335216418 ]
    mass: 12.010700
  - symbol: C # 53
    coordinates: [  0.824354589874203,  0.500047035082173,  0.427884459434406 ]
    mass: 12.010700
  - symbol: C # 54
    coordinates: [  0.725261348271278,  0.409953922816810,  0.427822282865213 ]
    mass: 12.010700
  - symbol: C # 55
    coordinates: [  0.743272544067133,  0.608154250680603,  0.427761091613895 ]
    mass: 12.010700
  - symbol: C # 56
    coordinates: [  0.644195855379457,  0.518058427528698,  0.427690330480889 ]
    mass: 12.010700
  - symbol: C # 57
    coordinates: [  0.662188886941513,  0.716269174784335,  0.427694921559917 ]
    mass: 12.010700
  - symbol: C # 58
    coordinates: [  0.563117937717377,  0.626167386808364,  0.427660425439561 ]
    mass: 12.010700
  - symbol: C # 59
    coordinates: [  0.581119218826193,  0.824385444653825,  0.427807672883527 ]
    mass: 12.010700
  - symbol: C # 60
    coordinates: [  0.482033484414213,  0.734287470990384,  0.427808536260991 ]
    mass: 12.010700
  - symbol: C # 61
    coordinates: [  0.500025880345361,  0.932474462447271,  0.427806410776448 ]
    mass: 12.010700
  - symbol: C # 62
    coordinates: [  0.400917937718121,  0.842381770831354,  0.427805354058587 ]
    mass: 12.010700
  - symbol: C # 63
    coordinates: [  0.319788779827738,  0.950453526218264,  0.427437067971376 ]
    mass: 12.010700
  - symbol: C # 64
    coordinates: [  0.914456624266540,  0.491059191743157,  0.427822667715681 ]
    mass: 12.010700
  - symbol: C # 65
    coordinates: [  0.932438008633131,  0.689240821526330,  0.427673490951665 ]
    mass: 12.010700
  - symbol: C # 66
    coordinates: [  0.833356597371249,  0.599142632175510,  0.427819050414090 ]
    mass: 12.010700
  - symbol: C # 67
    coordinates: [  0.851341135914809,  0.797361815915437,  0.427459794516471 ]
    mass: 12.010700
  - symbol: C # 68
    coordinates: [  0.752277956355545,  0.707261060473665,  0.427655912108345 ]
    mass: 12.010700
  - symbol: C # 69
    coordinates: [  0.770286164944527,  0.905495066198990,  0.427470341610735 ]
    mass: 12.010700
  - symbol: C # 70
    coordinates: [  0.671213709937545,  0.815392019981195,  0.427682573900056 ]
    mass: 12.010700
  - symbol: C # 71
    coordinates: [  0.590126430511105,  0.923492952106017,  0.427803669324094 ]
    mass: 12.010700
  - symbol: C # 72
    coordinates: [  0.941423771503400,  0.788338436050020,  0.427433873526926 ]
    mass: 12.010700
  - symbol: C # 73
    coordinates: [  0.959455888933608,  0.986572957119176,  0.427058621774463 ]
    mass: 12.010700
  - symbol: C # 74
    coordinates: [  0.860369366382868,  0.896486857574727,  0.427299983525257 ]
    mass: 12.010700
  - symbol: C # 75
    coordinates: [  0.166722530066533,  0.076645486921718,  0.573103816635007 ]
    mass: 12.010700
  - symbol: C # 76
    coordinates: [  0.058564212136526,  0.157676112606750,  0.573100096842655 ]
    mass: 12.010700
  - symbol: C # 77
    coordinates: [  0.572123138638307,  0.022574391614500,  0.572225899002000 ]
    mass: 12.010700
  - symbol: C # 78
    coordinates: [  0.464040672123659,  0.103713793470465,  0.572525988725347 ]
    mass: 12.010700
  - symbol: C # 79
    coordinates: [  0.373951431984258,  0.004608040498737,  0.572553020165304 ]
    mass: 12.010700
  - symbol: C # 80
    coordinates: [  0.355906020235881,  0.184791664499950,  0.572941623452067 ]
    mass: 12.010700
  - symbol: C # 81
    coordinates: [  0.265833589907886,  0.085680029678788,  0.572994135020955 ]
    mass: 12.010700
  - symbol: C # 82
    coordinates: [  0.247752310550996,  0.265837786555008,  0.573102089041894 ]
    mass: 12.010700
  - symbol: C # 83
    coordinates: [  0.157679831467622,  0.166718966930663,  0.573156086722556 ]
    mass: 12.010700
  - symbol: C # 84
    coordinates: [  0.139604909814642,  0.346872520513293,  0.572940347857149 ]
    mass: 12.010700
  - symbol: C # 85
    coordinates: [  0.049527974197278,  0.247752878024046,  0.572993809309002 ]
    mass: 12.010700
  - symbol: C # 86
    coordinates: [  0.031499522159785,  0.427931867494574,  0.572530147659722 ]
    mass: 12.010700
  - symbol: C # 87
    coordinates: [  0.869391275756537,  0.049535228837417,  0.572780425711203 ]
    mass: 12.010700
  - symbol: C # 88
    coordinates: [  0.761273825800830,  0.130625388210922,  0.572439331303148 ]
    mass: 12.010700
  - symbol: C # 89
    coordinates: [  0.671191139172849,  0.031533273676172,  0.572298689114178 ]
    mass: 12.010700
  - symbol: C # 90
    coordinates: [  0.653192356924109,  0.211777019412143,  0.572303068408629 ]
    mass: 12.010700
  - symbol: C # 91
    coordinates: [  0.563106903928346,  0.112680093631255,  0.572330480432468 ]
    mass: 12.010700
  - symbol: C # 92
    coordinates: [  0.545091519167537,  0.292904938007783,  0.572531609427976 ]
    mass: 12.010700
  - symbol: C # 93
    coordinates: [  0.455005050413448,  0.193802984491820,  0.572696210502069 ]
    mass: 12.010700
  - symbol: C # 94
    coordinates: [  0.436950263562709,  0.373965528695530,  0.572790168792864 ]
    mass: 12.010700
  - symbol: C # 95
    coordinates: [  0.346867110539248,  0.274869798918425,  0.572995899803037 ]
    mass: 12.010700
  - symbol: C # 96
    coordinates: [  0.328800093543357,  0.455011174181509,  0.572788907580700 ]
    mass: 12.010700
  - symbol: C # 97
    coordinates: [  0.238719070813075,  0.355910919588970,  0.572993727117774 ]
    mass: 12.010700
  - symbol: C # 98
    coordinates: [  0.220684988926247,  0.536074436634607,  0.572540508275508 ]
    mass: 12.010700
  - symbol: C # 99
    coordinates: [  0.130598960609162,  0.436955641529880,  0.572699521606189 ]
    mass: 12.010700
  - symbol: C # 100
    coordinates: [  0.112622229612968,  0.617152333042638,  0.572304673757141 ]
    mass: 12.010700
  - symbol: C # 101
    coordinates: [  0.022521037174932,  0.518029877055252,  0.572315566453034 ]
    mass: 12.010700
  - symbol: C # 102
    coordinates: [  0.004567576972125,  0.698240647814395,  0.572341859535805 ]
    mass: 12.010700
  - symbol: C # 103
    coordinates: [  0.968494320437561,  0.058560237078917,  0.572989590212410 ]
    mass: 12.010700
  - symbol: C # 104
    coordinates: [  0.950424576486269,  0.238733894147938,  0.572789274719840 ]
    mass: 12.010700
  - symbol: C # 105
    coordinates: [  0.860352364956535,  0.139622098838662,  0.572690981014995 ]
    mass: 12.010700
  - symbol: C # 106
    coordinates: [  0.842334135935616,  0.319833154190620,  0.572348860380096 ]
    mass: 12.010700
  - symbol: C # 107
    coordinates: [  0.752248112179162,  0.220726651357893,  0.572338862127406 ]
    mass: 12.010700
  - symbol: C # 108
    coordinates: [  0.734262029374512,  0.400963131076968,  0.572193363927397 ]
    mass: 12.010700
  - symbol: C # 109
    coordinates: [  0.644170391570787,  0.301879712342844,  0.572320903245074 ]
    mass: 12.010700
  - symbol: C # 110
    coordinates: [  0.626156155761703,  0.482061081908859,  0.572352573943941 ]
    mass: 12.010700
  - symbol: C # 111
    coordinates: [  0.536063563536835,  0.382996368308970,  0.572566890911008 ]
    mass: 12.010700
  - symbol: C # 112
    coordinates: [  0.518011849768015,  0.563116091736753,  0.572444654931906 ]
    mass: 12.010700
  - symbol: C # 113
    coordinates: [  0.427920679641043,  0.464043468993174,  0.572694334460063 ]
    mass: 12.010700
  - symbol: C # 114
    coordinates: [  0.409890317635909,  0.644185664055710,  0.572328019552452 ]
    mass: 12.010700
  - symbol: C # 115
    coordinates: [  0.319787979661081,  0.545090743447085,  0.572566860612369 ]
    mass: 12.010700
  - symbol: C # 116
    coordinates: [  0.301823339884297,  0.725293652056915,  0.572240598405383 ]
    mass: 12.010700
  - symbol: C # 117
    coordinates: [  0.211717355887645,  0.626169717305993,  0.572345456063666 ]
    mass: 12.010700
  - symbol: C # 118
    coordinates: [  0.193762109246058,  0.806386336351736,  0.572443968437128 ]
    mass: 12.010700
  - symbol: C # 119
    coordinates: [  0.103665688947365,  0.707253340578720,  0.572339403454420 ]
    mass: 12.010700
  - symbol: C # 120
    coordinates: [  0.085670581670401,  0.887448259842932,  0.572789006107188 ]
    mass: 12.010700
  - symbol: C # 121
    coordinates: [  0.995582083292039,  0.788332379978855,  0.572558582353981 ]
    mass: 12.010700
  - symbol: C # 122
    coordinates: [  0.941410895535731,  0.328825204941868,  0.572564418528324 ]
    mass: 12.010700
  - symbol: C # 123
    coordinates: [  0.923435322561515,  0.509033900729627,  0.572189237125476 ]
    mass: 12.010700
  - symbol: C # 124
    coordinates: [  0.833334993403515,  0.409937296107810,  0.572194944022073 ]
    mass: 12.010700
  - symbol: C # 125
    coordinates: [  0.815362276835549,  0.590130863345899,  0.572186344293384 ]
    mass: 12.010700
  - symbol: C # 126
    coordinates: [  0.725259174931659,  0.491059862811773,  0.572194803370298 ]
    mass: 12.010700
  - symbol: C # 127
    coordinates: [  0.707246456878625,  0.671201141652359,  0.572300409305776 ]
    mass: 12.010700
  - symbol: C # 128
    coordinates: [  0.617147122368569,  0.572150618609648,  0.572342374994696 ]
    mass: 12.010700
  - symbol: C # 129
    coordinates: [  0.599113407203526,  0.752264635376161,  0.572230772705866 ]
    mass: 12.010700
  - symbol: C # 130
    coordinates: [  0.509003897149026,  0.653199074212320,  0.572305084054670 ]
    mass: 12.010700
  - symbol: C # 131
    coordinates: [  0.491023393865783,  0.833382721474013,  0.572116857839460 ]
    mass: 12.010700
  - symbol: C # 132
    coordinates: [  0.400913859348647,  0.734284760380109,  0.572183568773930 ]
    mass: 12.010700
  - symbol: C # 133
    coordinates: [  0.382948887693659,  0.914508923947037,  0.572321121902011 ]
    mass: 12.010700
  - symbol: C # 134
    coordinates: [  0.292857941953875,  0.815394683083450,  0.572308068104201 ]
    mass: 12.010700
  - symbol: C # 135
    coordinates: [  0.274857469330337,  0.995599658579533,  0.572782936507402 ]
    mass: 12.010700
  - symbol: C # 136
    coordinates: [  0.184777708859950,  0.896476913515985,  0.572693015872442 ]
    mass: 12.010700
  - symbol: C # 137
    coordinates: [  0.076653765372223,  0.977526624252464,  0.572996524695368 ]
    mass: 12.010700
  - symbol: C # 138
    coordinates: [  0.914461434386650,  0.599134700285780,  0.572188929925340 ]
    mass: 12.010700
  - symbol: C # 139
    coordinates: [  0.896466444169543,  0.779308166406900,  0.572522925543868 ]
    mass: 12.010700
  - symbol: C # 140
    coordinates: [  0.806370498793299,  0.680223234812276,  0.572310354178908 ]
    mass: 12.010700
  - symbol: C # 141
    coordinates: [  0.788331620435600,  0.860360082507955,  0.572526718102380 ]
    mass: 12.010700
  - symbol: C # 142
    coordinates: [  0.698243912517125,  0.761289256876603,  0.572333574639421 ]
    mass: 12.010700
  - symbol: C # 143
    coordinates: [  0.680209720701204,  0.941438239298925,  0.572319267097701 ]
    mass: 12.010700
  - symbol: C # 144
    coordinates: [  0.590115681842664,  0.842364724658777,  0.572178329070403 ]
    mass: 12.010700
  - symbol: C # 145
    coordinates: [  0.482025338583093,  0.923484132422326,  0.572175740723323 ]
    mass: 12.010700
  - symbol: C # 146
    coordinates: [  0.977534834561435,  0.968487299458460,  0.572940277991789 ]
    mass: 12.010700
  - symbol: C # 147
    coordinates: [  0.887450025055784,  0.869389315991886,  0.572693251466771 ]
    mass: 12.010700
  - symbol: C # 148
    coordinates: [  0.779306994094170,  0.950448372503880,  0.572553851749304 ]
    mass: 12.010700
  reciprocal_lattice: # without 2pi
  - [     0.066792197574919,     0.038562587791756,     0.000000000000000 ] # a*
  - [    -0.000000011667993,     0.077125195557546,     0.000000000000000 ] # b*
  - [     0.000000000000000,     0.000000000000000,     0.040000000000000 ] # c*

unit_cell:
  lattice:
  - [    14.971807321250118,     0.000002265030765,     0.000000000000000 ] # a
  - [    -7.485901721911001,    12.965930334768640,     0.000000000000000 ] # b
  - [     0.000000000000000,     0.000000000000000,    25.000000000000000 ] # c
  points:
  - symbol: C # 1
    coordinates: [  0.148635982082473,  0.067606234514477,  0.426898370365496 ]
    mass: 12.010700
    reduced_to: 1
  - symbol: C # 2
    coordinates: [  0.067617034168377,  0.175772613051701,  0.426901332574752 ]
    mass: 12.010700
    reduced_to: 2
  - symbol: C # 3
    coordinates: [  0.418916976844140,  0.040540781314226,  0.427471325670341 ]
    mass: 12.010700
    reduced_to: 3
  - symbol: C # 4
    coordinates: [  0.337831749760562,  0.148636459779711,  0.427060284492701 ]
    mass: 12.010700
    reduced_to: 4
  - symbol: C # 5
    coordinates: [  0.238708557175215,  0.058558282266362,  0.427006355266062 ]
    mass: 12.010700
    reduced_to: 5
  - symbol: C # 6
    coordinates: [  0.256797531377147,  0.256788424843350,  0.426896344997187 ]
    mass: 12.010700
    reduced_to: 6
  - symbol: C # 7
    coordinates: [  0.157681979628061,  0.166720889195096,  0.426844335647109 ]
    mass: 12.010700
    reduced_to: 7
  - symbol: C # 8
    coordinates: [  0.175772493220215,  0.364955810677721,  0.427058646271315 ]
    mass: 12.010700
    reduced_to: 8
  - symbol: C # 9
    coordinates: [  0.076658645500740,  0.274884024531620,  0.427010889014909 ]
    mass: 12.010700
    reduced_to: 9
  - symbol: C # 10
    coordinates: [  0.094681388003298,  0.473064381415465,  0.427472201318241 ]
    mass: 12.010700
    reduced_to: 10
  - symbol: C # 11
    coordinates: [  0.995568394362147,  0.382984762339917,  0.427444585522770 ]
    mass: 12.010700
    reduced_to: 11
  - symbol: C # 12
    coordinates: [  0.013557749868690,  0.581147158622705,  0.427770595131240 ]
    mass: 12.010700
    reduced_to: 12
  - symbol: C # 13
    coordinates: [  0.689229639643930,  0.013591691466496,  0.427654121180406 ]
    mass: 12.010700
    reduced_to: 13
  - symbol: C # 14
    coordinates: [  0.608144033636032,  0.121662334415677,  0.427697249304401 ]
    mass: 12.010700
    reduced_to: 14
  - symbol: C # 15
    coordinates: [  0.509019646698185,  0.031557379817913,  0.427680443971110 ]
    mass: 12.010700
    reduced_to: 15
  - symbol: C # 16
    coordinates: [  0.527039946879732,  0.229726940466444,  0.427470427291215 ]
    mass: 12.010700
    reduced_to: 16
  - symbol: C # 17
    coordinates: [  0.427916804358212,  0.139625479645909,  0.427304784292305 ]
    mass: 12.010700
    reduced_to: 17
  - symbol: C # 18
    coordinates: [  0.445986287548450,  0.337836074543164,  0.427214180259330 ]
    mass: 12.010700
    reduced_to: 18
  - symbol: C # 19
    coordinates: [  0.346870752718740,  0.247750461194868,  0.427005858928629 ]
    mass: 12.010700
    reduced_to: 19
  - symbol: C # 20
    coordinates: [  0.364945141665121,  0.445987205523676,  0.427211863066577 ]
    mass: 12.010700
    reduced_to: 20
  - symbol: C # 21
    coordinates: [  0.265850071161680,  0.355911730238862,  0.427003496907521 ]
    mass: 12.010700
    reduced_to: 21
  - symbol: C # 22
    coordinates: [  0.283859593174828,  0.554121462402667,  0.427475269394641 ]
    mass: 12.010700
    reduced_to: 22
  - symbol: C # 23
    coordinates: [  0.184775945147295,  0.464043094266802,  0.427305016588317 ]
    mass: 12.010700
    reduced_to: 23
  - symbol: C # 24
    coordinates: [  0.202747101623659,  0.662223533253593,  0.427699323432367 ]
    mass: 12.010700
    reduced_to: 24
  - symbol: C # 25
    coordinates: [  0.103658519690322,  0.572134564885243,  0.427666955292046 ]
    mass: 12.010700
    reduced_to: 25
  - symbol: C # 26
    coordinates: [  0.121620320970181,  0.770312135405784,  0.427553868789324 ]
    mass: 12.010700
    reduced_to: 26
  - symbol: C # 27
    coordinates: [  0.022534965007011,  0.680220321533297,  0.427694889731971 ]
    mass: 12.010700
    reduced_to: 27
  - symbol: C # 28
    coordinates: [  0.040507444980441,  0.878419985608863,  0.427209885057434 ]
    mass: 12.010700
    reduced_to: 28
  - symbol: C # 29
    coordinates: [  0.878424189876209,  0.094709960803369,  0.427216564452371 ]
    mass: 12.010700
    reduced_to: 29
  - symbol: C # 30
    coordinates: [  0.779321912827439,  0.004614938640032,  0.427440006409589 ]
    mass: 12.010700
    reduced_to: 30
  - symbol: C # 31
    coordinates: [  0.797356537766385,  0.202797244536605,  0.427561792371219 ]
    mass: 12.010700
    reduced_to: 31
  - symbol: C # 32
    coordinates: [  0.698244824094475,  0.112695114265942,  0.427662904409105 ]
    mass: 12.010700
    reduced_to: 32
  - symbol: C # 33
    coordinates: [  0.716249740457459,  0.310851389908815,  0.427772171774844 ]
    mass: 12.010700
    reduced_to: 33
  - symbol: C # 34
    coordinates: [  0.617136922476956,  0.220750514684957,  0.427666897177853 ]
    mass: 12.010700
    reduced_to: 34
  - symbol: C # 35
    coordinates: [  0.635171702585917,  0.418941550924361,  0.427674429322436 ]
    mass: 12.010700
    reduced_to: 35
  - symbol: C # 36
    coordinates: [  0.536072980463563,  0.328842828444984,  0.427441834135596 ]
    mass: 12.010700
    reduced_to: 36
  - symbol: C # 37
    coordinates: [  0.554104299450633,  0.527056629962142,  0.427555697550067 ]
    mass: 12.010700
    reduced_to: 37
  - symbol: C # 38
    coordinates: [  0.455025260689800,  0.436959571102326,  0.427306724566178 ]
    mass: 12.010700
    reduced_to: 38
  - symbol: C # 39
    coordinates: [  0.473029689268965,  0.635184067595633,  0.427657260814522 ]
    mass: 12.010700
    reduced_to: 39
  - symbol: C # 40
    coordinates: [  0.373948497637538,  0.545090024461926,  0.427440937282822 ]
    mass: 12.010700
    reduced_to: 40
  - symbol: C # 41
    coordinates: [  0.391934872266109,  0.743295556751766,  0.427811844046376 ]
    mass: 12.010700
    reduced_to: 41
  - symbol: C # 42
    coordinates: [  0.292845477218946,  0.653203318993178,  0.427687558071172 ]
    mass: 12.010700
    reduced_to: 42
  - symbol: C # 43
    coordinates: [  0.310813321721618,  0.851383676721749,  0.427649349947219 ]
    mass: 12.010700
    reduced_to: 43
  - symbol: C # 44
    coordinates: [  0.211722400869967,  0.761292970381714,  0.427657569639355 ]
    mass: 12.010700
    reduced_to: 44
  - symbol: C # 45
    coordinates: [  0.229691880587920,  0.959470168391015,  0.427212089862333 ]
    mass: 12.010700
    reduced_to: 45
  - symbol: C # 46
    coordinates: [  0.130591823954098,  0.869386851994035,  0.427304786499310 ]
    mass: 12.010700
    reduced_to: 46
  - symbol: C # 47
    coordinates: [  0.049530351273485,  0.977530454184480,  0.427004783835147 ]
    mass: 12.010700
    reduced_to: 47
  - symbol: C # 48
    coordinates: [  0.968503363983467,  0.085694197402667,  0.427008232202399 ]
    mass: 12.010700
    reduced_to: 48
  - symbol: C # 49
    coordinates: [  0.986573645901016,  0.283908074029679,  0.427219148422367 ]
    mass: 12.010700
    reduced_to: 49
  - symbol: C # 50
    coordinates: [  0.887451927241384,  0.193817399320114,  0.427312532417896 ]
    mass: 12.010700
    reduced_to: 50
  - symbol: C # 51
    coordinates: [  0.905470131711010,  0.391981295141696,  0.427679521400409 ]
    mass: 12.010700
    reduced_to: 51
  - symbol: C # 52
    coordinates: [  0.806353585631401,  0.301882640612316,  0.427700335216418 ]
    mass: 12.010700
    reduced_to: 52
  - symbol: C # 53
    coordinates: [  0.824354589874203,  0.500047035082173,  0.427884459434406 ]
    mass: 12.010700
    reduced_to: 53
  - symbol: C # 54
    coordinates: [  0.725261348271278,  0.409953922816810,  0.427822282865213 ]
    mass: 12.010700
    reduced_to: 54
  - symbol: C # 55
    coordinates: [  0.743272544067133,  0.608154250680603,  0.427761091613895 ]
    mass: 12.010700
    reduced_to: 55
  - symbol: C # 56
    coordinates: [  0.644195855379457,  0.518058427528698,  0.427690330480889 ]
    mass: 12.010700
    reduced_to: 56
  - symbol: C # 57
    coordinates: [  0.662188886941513,  0.716269174784335,  0.427694921559917 ]
    mass: 12.010700
    reduced_to: 57
  - symbol: C # 58
    coordinates: [  0.563117937717377,  0.626167386808364,  0.427660425439561 ]
    mass: 12.010700
    reduced_to: 58
  - symbol: C # 59
    coordinates: [  0.581119218826193,  0.824385444653825,  0.427807672883527 ]
    mass: 12.010700
    reduced_to: 59
  - symbol: C # 60
    coordinates: [  0.482033484414213,  0.734287470990384,  0.427808536260991 ]
    mass: 12.010700
    reduced_to: 60
  - symbol: C # 61
    coordinates: [  0.500025880345361,  0.932474462447271,  0.427806410776448 ]
    mass: 12.010700
    reduced_to: 61
  - symbol: C # 62
    coordinates: [  0.400917937718121,  0.842381770831354,  0.427805354058587 ]
    mass: 12.010700
    reduced_to: 62
  - symbol: C # 63
    coordinates: [  0.319788779827738,  0.950453526218264,  0.427437067971376 ]
    mass: 12.010700
    reduced_to: 63
  - symbol: C # 64
    coordinates: [  0.914456624266540,  0.491059191743157,  0.427822667715681 ]
    mass: 12.010700
    reduced_to: 64
  - symbol: C # 65
    coordinates: [  0.932438008633131,  0.689240821526330,  0.427673490951665 ]
    mass: 12.010700
    reduced_to: 65
  - symbol: C # 66
    coordinates: [  0.833356597371249,  0.599142632175510,  0.427819050414090 ]
    mass: 12.010700
    reduced_to: 66
  - symbol: C # 67
    coordinates: [  0.851341135914809,  0.797361815915437,  0.427459794516471 ]
    mass: 12.010700
    reduced_to: 67
  - symbol: C # 68
    coordinates: [  0.752277956355545,  0.707261060473665,  0.427655912108345 ]
    mass: 12.010700
    reduced_to: 68
  - symbol: C # 69
    coordinates: [  0.770286164944527,  0.905495066198990,  0.427470341610735 ]
    mass: 12.010700
    reduced_to: 69
  - symbol: C # 70
    coordinates: [  0.671213709937545,  0.815392019981195,  0.427682573900056 ]
    mass: 12.010700
    reduced_to: 70
  - symbol: C # 71
    coordinates: [  0.590126430511105,  0.923492952106017,  0.427803669324094 ]
    mass: 12.010700
    reduced_to: 71
  - symbol: C # 72
    coordinates: [  0.941423771503400,  0.788338436050020,  0.427433873526926 ]
    mass: 12.010700
    reduced_to: 72
  - symbol: C # 73
    coordinates: [  0.959455888933608,  0.986572957119176,  0.427058621774463 ]
    mass: 12.010700
    reduced_to: 73
  - symbol: C # 74
    coordinates: [  0.860369366382868,  0.896486857574727,  0.427299983525257 ]
    mass: 12.010700
    reduced_to: 74
  - symbol: C # 75
    coordinates: [  0.166722530066533,  0.076645486921718,  0.573103816635007 ]
    mass: 12.010700
    reduced_to: 75
  - symbol: C # 76
    coordinates: [  0.058564212136526,  0.157676112606750,  0.573100096842655 ]
    mass: 12.010700
    reduced_to: 76
  - symbol: C # 77
    coordinates: [  0.572123138638307,  0.022574391614500,  0.572225899002000 ]
    mass: 12.010700
    reduced_to: 77
  - symbol: C # 78
    coordinates: [  0.464040672123659,  0.103713793470465,  0.572525988725347 ]
    mass: 12.010700
    reduced_to: 78
  - symbol: C # 79
    coordinates: [  0.373951431984258,  0.004608040498737,  0.572553020165304 ]
    mass: 12.010700
    reduced_to: 79
  - symbol: C # 80
    coordinates: [  0.355906020235881,  0.184791664499950,  0.572941623452067 ]
    mass: 12.010700
    reduced_to: 80
  - symbol: C # 81