 4060

    1
0.0000000000e+00 0.0000000000e+00 0.0000000000e+00
0.0000000000e+00 0.0000000000e+00 0.0000000000e+00
     1      1      1
 1  1  1     0.0000000000e+00
 1  1  2     1.2812387744e+00
 1  1  3    -3.2525216338e-01
 1  2  1     1.2812387744e+00
 1  2  2     0.0000000000e+00
 1  2  3     0.0000000000e+00
 1  3  1    -3.2525216338e-01
 1  3  2     0.0000000000e+00
 1  3  3     0.0000000000e+00
 2  1  1     1.2812387744e+00
 2  1  2     0.0000000000e+00
 2  1  3     0.0000000000e+00
 2  2  1     0.0000000000e+00
 2  2  2    -3.9948635335e-01
 2  2  3    -1.9584020696e-01
 2  3  1     0.0000000000e+00
 2  3  2    -1.9584020696e-01
 2  3  3    -9.9478900080e-01
 3  1  1    -3.2525216338e-01
 3  1  2     0.0000000000e+00
 3  1  3     0.0000000000e+00
 3  2  1     0.0000000000e+00
 3  2  2    -1.9584020696e-01
 3  2  3    -9.9478900080e-01
 3  3  1     0.0000000000e+00
 3  3  2    -9.9478900080e-01
 3  3  3    -2.7346244981e-02

    2
0.0000000000e+00 0.0000000000e+00 0.0000000000e+00
0.0000000000e+00 0.0000000000e+00 0.0000000000e+00
     1      1      3
 1  1  1     8.7401485589e-03
 1  1  2     9.4074752435e-03
 1  1  3    -1.4384815489e-02
 1  2  1     1.0363210297e-03
 1  2  2     7.9711311005e-03
 1  2  3    -4.1688124716e-03
 1  3  1    -1.0279264964e-02
 1  3  2     4.8621233103e-03
 1  3  3    -2.3752835389e-02
 2  1  1     1.0363210297e-03
 2  1  2     7.9711311005e-03
 2  1  3    -4.1688124716e-03
 2  2  1     8.4293457332e-03
 2  2  2    -2.2696358415e-03
 2  2  3     9.8204577017e-03
 2  3  1     1.5509734218e-03
 2  3  2     9.7861767913e-03
 2  3  3    -3.1678222562e-03
 3  1  1    -1.0279264964e-02
 3  1  2     4.8621233103e-03
 3  1  3    -2.3752835389e-02
 3  2  1     1.5509734218e-03
 3  2  2     9.7861767913e-03
 3  2  3    -3.1678222562e-03
 3  3  1    -1.3043323910e-02
 3  3  2     4.6501073357e-04
 3  3  3    -2.3503229673e-03

    3
0.0000000000e+00 0.0000000000e+00 0.0000000000e+00
0.0000000000e+00 0.0000000000e+00 0.0000000000e+00
     1      1      6
 1  1  1    -8.3699627498e-03
 1  1  2     4.7785800717e-02
 1  1  3    -2.2079701856e-02
 1  2  1     4.6986912789e-02
 1  2  2    -4.6609259122e-02
 1  2  3     3.1259665577e-02
 1  3  1    -2.3586797424e-02
 1  3  2     3.2101444877e-02
 1  3  3    -3.3122468428e-03
 2  1  1     4.6986912789e-02
 2  1  2    -4.6609259122e-02
 2  1  3     3.1259665577e-02
 2  2  1    -5.9983887244e-02
 2  2  2     1.2084951829e-02
 2  2  3    -2.7074408604e-02
 2  3  1     3.5785796684e-02
 2  3  2    -2.1667731658e-02
 2  3  3     3.1940017105e-04
 3  1  1    -2.3586797424e-02
 3  1  2     3.2101444877e-02
 3  1  3    -3.3122468428e-03
 3  2  1     3.5785796684e-02
 3  2  2    -2.1667731658e-02
 3  2  3     3.1940017105e-04
 3  3  1     9.2344809200e-03
 3  3  2    -5.0331087724e-03
 3  3  3     1.6652699880e-02

    4
0.0000000000e+00 0.0000000000e+00 0.0000000000e+00
0.0000000000e+00 0.0000000000e+00 0.0000000000e+00
     1      1      7
 1  1  1     0.0000000000e+00
 1  1  2    -1.9351975009e-01
 1  1  3     4.9206484845e-02
 1  2  1    -1.5401304510e-01
 1  2  2     0.0000000000e+00
 1  2  3     0.0000000000e+00
 1  3  1     6.2905805399e-02
 1  3  2     0.0000000000e+00
 1  3  3     0.0000000000e+00
 2  1  1    -1.5401304510e-01
 2  1  2     0.0000000000e+00
 2  1  3     0.0000000000e+00
 2  2  1     0.0000000000e+00
 2  2  2     8.6348795910e-01
 2  2  3    -3.2189449838e-01
 2  3  1     0.0000000000e+00
 2  3  2    -3.2658331744e-01
 2  3  3    -2.1627233669e-02
 3  1  1     6.2905805399e-02
 3  1  2     0.0000000000e+00
 3  1  3     0.0000000000e+00
 3  2  1     0.0000000000e+00
 3  2  2    -3.2658331744e-01
 3  2  3    -2.1627233669e-02
 3  3  1     0.0000000000e+00
 3  3  2    -9.5148889873e-02
 3  3  3     1.1279020873e-01

    5
0.0000000000e+00 0.0000000000e+00 0.0000000000e+00
0.0000000000e+00 0.0000000000e+00 0.0000000000e+00
     1      1     13
 1  1  1     0.0000000000e+00
 1  1  2     1.1663148881e-02
 1  1  3     9.2869124146e-03
 1  2  1     3.5759545356e-03
 1  2  2     0.0000000000e+00
 1  2  3     0.0000000000e+00
 1  3  1    -1.4418798865e-03
 1  3  2     0.0000000000e+00
 1  3  3     0.0000000000e+00
 2  1  1     3.5759545356e-03
 2  1  2     0.0000000000e+00
 2  1  3     0.0000000000e+00
 2  2  1     0.0000000000e+00
 2  2  2     3.3511092797e-03
 2  2  3    -3.6528942057e-03
 2  3  1     0.0000000000e+00
 2  3  2     3.2383092651e-03
 2  3  3     8.0923697870e-03
 3  1  1    -1.4418798865e-03
 3  1  2     0.0000000000e+00
 3  1  3     0.0000000000e+00
 3  2  1     0.0000000000e+00
 3  2  2     3.2383092651e-03
 3  2  3     8.0923697870e-03
 3  3  1     0.0000000000e+00
 3  3  2    -5.7875721928e-02
 3  3  3    -2.6053060549e-02

    6
0.0000000000e+00 0.0000000000e+00 0.0000000000e+00
0.0000000000e+00 0.0000000000e+00 0.0000000000e+00
     1      1     14
 1  1  1     0.0000000000e+00
 1  1  2    -3.4286797215e-02
 1  1  3     3.8934442900e-02
 1  2  1    -6.9374118363e-03
 1  2  2     0.0000000000e+00
 1  2  3     0.0000000000e+00
 1  3  1     1.3396178258e-02
 1  3  2     0.0000000000e+00
 1  3  3     0.0000000000e+00
 2  1  1    -6.9374118363e-03
 2  1  2     0.0000000000e+00
 2  1  3     0.0000000000e+00
 2  2  1     0.0000000000e+00
 2  2  2     9.1571109492e-02
 2  2  3    -2.6136511102e-01
 2  3  1     0.0000000000e+00
 2  3  2    -2.6413053165e-01
 2  3  3     4.7735312395e-01
 3  1  1     1.3396178258e-02
 3  1  2     0.0000000000e+00
 3  1  3     0.0000000000e+00
 3  2  1     0.0000000000e+00
 3  2  2    -2.6413053165e-01
 3  2  3     4.7735312395e-01
 3  3  1     0.0000000000e+00
 3  3  2     5.9191983666e-01
 3  3  3    -7.7508227562e-01

    7
0.0000000000e+00 0.0000000000e+00 0.0000000000e+00
0.0000000000e+00 0.0000000000e+00 0.0000000000e+00
     1      1     16
 1  1  1    -6.0061464036e-01
 1  1  2    -4.1228112759e-01
 1  1  3    -1.1556778257e-01
 1  2  1    -2.6718468275e-01
 1  2  2    -2.1137211672e-01
 1  2  3    -1.0908408884e-02
 1  3  1    -2.0427513274e-01
 1  3  2    -1.0688686056e-01
 1  3  3    -7.8109724104e-03
 2  1  1    -2.6718468275e-01
 2  1  2    -2.1137211672e-01
 2  1  3    -1.0908408884e-02
 2  2  1    -9.9711177765e-02
 2  2  2    -1.0894588674e-01
 2  2  3     3.0761023379e-02
 2  3  1    -1.2442132570e-01
 2  3  2    -4.9467405686e-02
 2  3  3    -1.7994500868e-02
 3  1  1    -2.0427513274e-01
 3  1  2    -1.0688686056e-01
 3  1  3    -7.8109724104e-03
 3  2  1    -1.2442132570e-01
 3  2  2    -4.9467405686e-02
 3  2  3    -1.7994500868e-02
 3  3  1    -6.6958576818e-02
 3  3  2    -3.2082856030e-02
 3  3  3    -7.4607899825e-03

    8
0.0000000000e+00 0.0000000000e+00 0.0000000000e+00
-6.6866790573e+00 0.0000000000e+00 0.0000000000e+00
     1      1      3
 1  1  1    -8.7401485589e-03
 1  1  2     9.4074752435e-03
 1  1  3    -1.4384815489e-02
 1  2  1     1.0363210297e-03
 1  2  2    -7.9711311005e-03
 1  2  3     4.1688124716e-03
 1  3  1    -1.0279264964e-02
 1  3  2    -4.8621233103e-03
 1  3  3     2.3752835389e-02
 2  1  1     1.0363210297e-03
 2  1  2    -7.9711311005e-03
 2  1  3     4.1688124716e-03
 2  2  1    -8.4293457332e-03
 2  2  2    -2.2696358415e-03
 2  2  3     9.8204577017e-03
 2  3  1    -1.5509734218e-03
 2  3  2     9.7861767913e-03
 2  3  3    -3.1678222562e-03
 3  1  1    -1.0279264964e-02
 3  1  2    -4.8621233103e-03
 3  1  3     2.3752835389e-02
 3  2  1    -1.5509734218e-03
 3  2  2     9.7861767913e-03
 3  2  3    -3.1678222562e-03
 3  3  1     1.3043323910e-02
 3  3  2     4.6501073357e-04
 3  3  3    -2.3503229673e-03

    9
0.0000000000e+00 0.0000000000e+00 0.0000000000e+00
-6.6866790573e+00 0.0000000000e+00 0.0000000000e+00
     1      1      6
 1  1  1     8.3699627498e-03
 1  1  2     4.7785800717e-02
 1  1  3    -2.2079701856e-02
 1  2  1     4.6986912789e-02
 1  2  2     4.6609259122e-02
 1  2  3    -3.1259665577e-02
 1  3  1    -2.3586797424e-02
 1  3  2    -3.2101444877e-02
 1  3  3     3.3122468428e-03
 2  1  1     4.6986912789e-02
 2  1  2     4.6609259122e-02
 2  1  3    -3.1259665577e-02
 2  2  1     5.9983887244e-02
 2  2  2     1.2084951829e-02
 2  2  3    -2.7074408604e-02
 2  3  1    -3.5785796684e-02
 2  3  2    -2.1667731658e-02
 2  3  3     3.1940017105e-04
 3  1  1    -2.3586797424e-02
 3  1  2    -3.2101444877e-02
 3  1  3     3.3122468428e-03
 3  2  1    -3.5785796684e-02
 3  2  2    -2.1667731658e-02
 3  2  3     3.1940017105e-04
 3  3  1    -9.2344809200e-03
 3  3  2    -5.0331087724e-03
 3  3  3     1.6652699880e-02

   10
0.0000000000e+00 0.0000000000e+00 0.0000000000e+00
-6.6866790573e+00 0.0000000000e+00 0.0000000000e+00
     1      1     16
 1  1  1     6.0061464036e-01
 1  1  2    -4.1228112759e-01
 1  1  3    -1.1556778257e-01
 1  2  1    -2.6718468275e-01
 1  2  2     2.1137211672e-01
 1  2  3     1.0908408884e-02
 1  3  1    -2.0427513274e-01
 1  3  2     1.0688686056e-01
 1  3  3     7.8109724104e-03
 2  1  1    -2.6718468275e-01
 2  1  2     2.1137211672e-01
 2  1  3     1.0908408884e-02
 2  2  1     9.9711177765e-02
 2  2  2    -1.0894588674e-01
 2  2  3     3.0761023379e-02
 2  3  1     1.2442132570e-01
 2  3  2    -4.9467405686e-02
 2  3  3    -1.7994500868e-02
 3  1  1    -2.0427513274e-01
 3  1  2     1.0688686056e-01
 3  1  3     7.8109724104e-03
 3  2  1     1.2442132570e-01
 3  2  2    -4.9467405686e-02
 3  2  3    -1.7994500868e-02
 3  3  1     6.6958576818e-02
 3  3  2    -3.2082856030e-02
 3  3  3    -7.4607899825e-03

   11
0.0000000000e+00 0.0000000000e+00 0.0000000000e+00
0.0000000000e+00 1.1956043427e+01 0.0000000000e+00
     1      1      5
 1  1  1     0.0000000000e+00
 1  1  2     8.9692591839e-02
 1  1  3     1.0337025863e-01
 1  2  1     7.7737964363e-02
 1  2  2     0.0000000000e+00
 1  2  3     0.0000000000e+00
 1  3  1     7.9986062222e-02
 1  3  2     0.0000000000e+00
 1  3  3     0.0000000000e+00
 2  1  1     7.7737964363e-02
 2  1  2     0.0000000000e+00
 2  1  3     0.0000000000e+00
 2  2  1     0.0000000000e+00
 2  2  2    -1.8461880884e-01
 2  2  3    -2.8738783887e-01
 2  3  1     0.0000000000e+00
 2  3  2    -3.1883684653e-01
 2  3  3    -2.6000571762e-01
 3  1  1     7.9986062222e-02
 3  1  2     0.0000000000e+00
 3  1  3     0.0000000000e+00
 3  2  1     0.0000000000e+00
 3  2  2    -3.1883684653e-01
 3  2  3    -2.6000571762e-01
 3  3  1     0.0000000000e+00
 3  3  2    -2.2592045903e-01
 3  3  3    -4.8197770243e-02

   12
0.0000000000e+00 0.0000000000e+00 0.0000000000e+00
0.0000000000e+00 1.1956043427e+01 0.0000000000e+00
     1      1      8
 1  1  1     2.0095760489e-03
 1  1  2     5.4553253882e-03
 1  1  3    -1.5996185149e-04
 1  2  1    -2.1789247996e-03
 1  2  2     2.4261934959e-03
 1  2  3    -1.1640363141e-02
 1  3  1    -3.9347988369e-03
 1  3  2    -3.3617037502e-03
 1  3  3    -7.8834777845e-03
 2  1  1    -2.1789247996e-03
 2  1  2     2.4261934959e-03
 2  1  3    -1.1640363141e-02
 2  2  1    -3.0100746553e-03
 2  2  2     3.7252736612e-03
 2  2  3    -7.5711059186e-03
 2  3  1    -4.7249402823e-03
 2  3  2    -7.9537677776e-04
 2  3  3    -5.7137890612e-03
 3  1  1    -3.9347988369e-03
 3  1  2    -3.3617037502e-03
 3  1  3    -7.8834777845e-03
 3  2  1    -4.7249402823e-03
 3  2  2    -7.9537677776e-04
 3  2  3    -5.7137890612e-03
 3  3  1    -3.8237993083e-03
 3  3  2    -2.6063620953e-03
 3  3  3     6.0483466650e-03

   13
0.0000000000e+00 0.0000000000e+00 0.0000000000e+00
0.0000000000e+00 1.1956043427e+01 0.0000000000e+00
     1      1      9
 1  1  1    -2.0818147378e-01
 1  1  2    -4.5071034944e-01
 1  1  3     6.5718251831e-02
 1  2  1    -5.0525311680e-01
 1  2  2    -6.7024714137e-01
 1  2  3     9.3319130577e-02
 1  3  1     1.1523609734e-01
 1  3  2     1.5707521388e-01
 1  3  3     4.9725272473e-02
 2  1  1    -5.0525311680e-01
 2  1  2    -6.7024714137e-01
 2  1  3     9.3319130577e-02
 2  2  1    -7.5482303946e-01
 2  2  2    -7.4923507439e-01
 2  2  3     1.2628810527e-01
 2  3  1     1.4914595482e-01
 2  3  2     1.7724614276e-01
 2  3  3     7.2890218665e-02
 3  1  1     1.1523609734e-01
 3  1  2     1.5707521388e-01
 3  1  3     4.9725272473e-02
 3  2  1     1.4914595482e-01
 3  2  2     1.7724614276e-01
 3  2  3     7.2890218665e-02
 3  3  1     2.0896198385e-02
 3  3  2     1.5178635672e-02
 3  3  3    -1.2751960948e-02

   14
0.0000000000e+00 0.0000000000e+00 0.0000000000e+00
0.0000000000e+00 1.1956043427e+01 0.0000000000e+00
     1      1     10
 1  1  1    -3.2667086223e-02
 1  1  2     1.5138588711e-02
 1  1  3    -6.5604055244e-02
 1  2  1    -5.8719807239e-03
 1  2  2    -1.7419024377e-04
 1  2  3    -2.9548284962e-02
 1  3  1     2.0094406116e-02
 1  3  2     2.7931912889e-02
 1  3  3    -3.5423232546e-02
 2  1  1    -5.8719807239e-03
 2  1  2    -1.7419024377e-04
 2  1  3    -2.9548284962e-02
 2  2  1    -1.7959626491e-02
 2  2  2    -2.3369386805e-02
 2  2  3    -3.0802068021e-03
 2  3  1     4.5439055377e-03
 2  3  2     1.1757165948e-02
 2  3  3    -1.4328136549e-02
 3  1  1     2.0094406116e-02
 3  1  2     2.7931912889e-02
 3  1  3    -3.5423232546e-02
 3  2  1     4.5439055377e-03
 3  2  2     1.1757165948e-02
 3  2  3    -1.4328136549e-02
 3  3  1    -1.6559080127e-02
 3  3  2     7.7719332772e-03
 3  3  3    -1.4641461663e-02

   15
0.0000000000e+00 0.0000000000e+00 0.0000000000e+00
0.0000000000e+00 1.1956043427e+01 0.0000000000e+00
     1      1     15
 1  1  1    -1.8727874552e-02
 1  1  2     3.2138973374e-02
 1  1  3    -1.3191817528e-02
 1  2  1    -9.7329459275e-03
 1  2  2     8.6415213545e-04
 1  2  3    -1.4095735109e-03
 1  3  1    -1.0734953956e-02
 1  3  2     9.8012469306e-03
 1  3  3    -1.7050584437e-02
 2  1  1    -9.7329459275e-03
 2  1  2     8.6415213545e-04
 2  1  3    -1.4095735109e-03
 2  2  1    -1.5263426432e-02
 2  2  2    -2.5198523266e-02
 2  2  3    -1.9332315480e-02
 2  3  1    -9.1753740660e-03
 2  3  2    -2.9175656581e-03
 2  3  3    -1.9432686397e-02
 3  1  1    -1.0734953956e-02
 3  1  2     9.8012469306e-03
 3  1  3    -1.7050584437e-02
 3  2  1    -9.1753740660e-03
 3  2  2    -2.9175656581e-03
 3  2  3    -1.9432686397e-02
 3  3  1    -1.0124937100e-04
 3  3  2    -6.1138733127e-03
 3  3  3    -1.1029977136e-02

   16
0.0000000000e+00 0.0000000000e+00 0.0000000000e+00
-6.6866790573e+00 1.1956043427e+01 0.0000000000e+00
     1      1      8
 1  1  1    -2.0095760489e-03
 1  1  2     5.4553253882e-03
 1  1  3    -1.5996185149e-04
 1  2  1    -2.1789247996e-03
 1  2  2    -2.4261934959e-03
 1  2  3     1.1640363141e-02
 1  3  1    -3.9347988369e-03
 1  3  2     3.3617037502e-03
 1  3  3     7.8834777845e-03
 2  1  1    -2.1789247996e-03
 2  1  2    -2.4261934959e-03
 2  1  3     1.1640363141e-02
 2  2  1     3.0100746553e-03
 2  2  2     3.7252736612e-03
 2  2  3    -7.5711059186e-03
 2  3  1     4.7249402823e-03
 2  3  2    -7.9537677776e-04
 2  3  3    -5.7137890612e-03
 3  1  1    -3.9347988369e-03
 3  1  2     3.3617037502e-03
 3  1  3     7.8834777845e-03
 3  2  1     4.7249402823e-03
 3  2  2    -7.9537677776e-04
 3  2  3    -5.7137890612e-03
 3  3  1     3.8237993083e-03
 3  3  2    -2.6063620953e-03
 3  3  3     6.0483466650e-03

   17
0.0000000000e+00 0.0000000000e+00 0.0000000000e+00
-6.6866790573e+00 1.1956043427e+01 0.0000000000e+00
     1      1      9
 1  1  1     3.2667086223e-02
 1  1  2     1.5138588711e-02
 1  1  3    -6.5604055244e-02
 1  2  1    -5.8719807239e-03
 1  2  2     1.7419024377e-04
 1  2  3     2.9548284962e-02
 1  3  1     2.0094406116e-02
 1  3  2    -2.7931912889e-02
 1  3  3     3.5423232546e-02
 2  1  1    -5.8719807239e-03
 2  1  2     1.7419024377e-04
 2  1  3     2.9548284962e-02
 2  2  1     1.7959626491e-02
 2  2  2    -2.3369386805e-02
 2  2  3    -3.0802068021e-03
 2  3  1    -4.5439055377e-03
 2  3  2     1.1757165948e-02
 2  3  3    -1.4328136549e-02
 3  1  1     2.0094406116e-02
 3  1  2    -2.7931912889e-02
 3  1  3     3.5423232546e-02
 3  2  1    -4.5439055377e-03
 3  2  2     1.1757165948e-02
 3  2  3    -1.4328136549e-02
 3  3  1     1.6559080127e-02
 3  3  2     7.7719332772e-03
 3  3  3    -1.4641461663e-02

   18
0.0000000000e+00 0.0000000000e+00 0.0000000000e+00
-6.6866790573e+00 1.1956043427e+01 0.0000000000e+00
     1      1     10
 1  1  1     2.0818147378e-01
 1  1  2    -4.5071034944e-01
 1  1  3     6.5718251831e-02
 1  2  1    -5.0525311680e-01
 1  2  2     6.7024714137e-01
 1  2  3    -9.3319130577e-02
 1  3  1     1.1523609734e-01
 1  3  2    -1.5707521388e-01
 1  3  3    -4.9725272473e-02
 2  1  1    -5.0525311680e-01
 2  1  2     6.7024714137e-01
 2  1  3    -9.3319130577e-02
 2  2  1     7.5482303946e-01
 2  2  2    -7.4923507439e-01
 2  2  3     1.2628810527e-01
 2  3  1    -1.4914595482e-01
 2  3  2     1.7724614276e-01
 2  3  3     7.2890218665e-02
 3  1  1     1.1523609734e-01
 3  1  2    -1.5707521388e-01
 3  1  3    -4.9725272473e-02
 3  2  1    -1.4914595482e-01
 3  2  2     1.7724614276e-01
 3  2  3     7.2890218665e-02
 3  3  1    -2.0896198385e-02
 3  3  2     1.5178635672e-02
 3  3  3    -1.2751960948e-02

   19
0.0000000000e+00 0.0000000000e+00 0.0000000000e+00
-6.6866790573e+00 1.1956043427e+01 0.0000000000e+00
     1      1     15
 1  1  1     1.8727874552e-02
 1  1  2     3.2138973374e-02
 1  1  3    -1.3191817528e-02
 1  2  1    -9.7329459275e-03
 1  2  2    -8.6415213545e-04
 1  2  3     1.4095735109e-03
 1  3  1    -1.0734953956e-02
 1  3  2    -9.8012469306e-03
 1  3  3     1.7050584437e-02
 2  1  1    -9.7329459275e-03
 2  1  2    -8.6415213545e-04
 2  1  3     1.4095735109e-03
 2  2  1     1.5263426432e-02
 2  2  2    -2.5198523266e-02
 2  2  3    -1.9332315480e-02
 2  3  1     9.1753740660e-03
 2  3  2    -2.9175656581e-03
 2  3  3    -1.9432686397e-02
 3  1  1    -1.0734953956e-02
 3  1  2    -9.8012469306e-03
 3  1  3     1.7050584437e-02
 3  2  1     9.1753740660e-03
 3  2  2    -2.9175656581e-03
 3  2  3    -1.9432686397e-02
 3  3  1     1.0124937100e-04
 3  3  2    -6.1138733127e-03
 3  3  3    -1.1029977136e-02

   20
0.0000000000e+00 0.0000000000e+00 0.0000000000e+00
0.0000000000e+00 0.0000000000e+00 -6.2742236984e+00
     1      1      3
 1  1  1    -1.2471916142e-01
 1  1  2     3.3550406062e-02
 1  1  3     2.1224190133e-01
 1  2  1     4.4065255540e-02
 1  2  2     6.1199380502e-02
 1  2  3    -3.9444868933e-02
 1  3  1     2.2181090419e-01
 1  3  2    -3.4918789940e-02
 1  3  3    -8.3037620814e-02
 2  1  1     4.4065255540e-02
 2  1  2     6.1199380502e-02
 2  1  3    -3.9444868933e-02
 2  2  1     1.0965171218e-01
 2  2  2    -4.4694245308e-02
 2  2  3    -6.0286519220e-02
 2  3  1    -2.9094437226e-02
 2  3  2    -3.2061413722e-02
 2  3  3     2.0101702257e-02
 3  1  1     2.2181090419e-01
 3  1  2    -3.4918789940e-02
 3  1  3    -8.3037620814e-02
 3  2  1    -2.9094437226e-02
 3  2  2    -3.2061413722e-02
 3  2  3     2.0101702257e-02
 3  3  1    -4.7720784158e-02
 3  3  2     2.0307946967e-02
 3  3  3    -4.8233273774e-02

   21
0.0000000000e+00 0.0000000000e+00 0.0000000000e+00
0.0000000000e+00 0.0000000000e+00 -6.2742236984e+00
     1      1     12
 1  1  1     1.2827843779e-02
 1  1  2     1.2950314936e-01
 1  1  3     6.0277880812e-02
 1  2  1     5.7325202203e-02
 1  2  2    -3.3716604742e-01
 1  2  3    -1.7501848892e-01
 1  3  1     3.4471086509e-03
 1  3  2    -1.3800045334e-01
 1  3  3    -6.9721423330e-02
 2  1  1     5.7325202203e-02
 2  1  2    -3.3716604742e-01
 2  1  3    -1.7501848892e-01
 2  2  1    -1.4529460940e-01
 2  2  2     6.1762249863e-01
 2  2  3     3.8819332970e-01
 2  3  1    -2.1131193413e-02
 2  3  2     2.3884674897e-01
 2  3  3     1.9600023247e-01
 3  1  1     3.4471086509e-03
 3  1  2    -1.3800045334e-01
 3  1  3    -6.9721423330e-02
 3  2  1    -2.1131193413e-02
 3  2  2     2.3884674897e-01
 3  2  3     1.9600023247e-01
 3  3  1     2.9522499475e-02
 3  3  2     4.8851549664e-02
 3  3  3     7.8813972982e-02

   22
0.0000000000e+00 0.0000000000e+00 0.0000000000e+00
0.0000000000e+00 0.0000000000e+00 -6.2742236984e+00
     1      1     13
 1  1  1     0.0000000000e+00
 1  1  2    -6.6469110317e-03
 1  1  3    -3.3394081432e-02
 1  2  1     7.0982924959e-02
 1  2  2     0.0000000000e+00
 1  2  3     0.0000000000e+00
 1  3  1     2.2015650947e-02
 1  3  2     0.0000000000e+00
 1  3  3     0.0000000000e+00
 2  1  1     7.0982924959e-02
 2  1  2     0.0000000000e+00
 2  1  3     0.0000000000e+00
 2  2  1     0.0000000000e+00
 2  2  2     5.1364839808e-02
 2  2  3    -1.0732576545e-02
 2  3  1     0.0000000000e+00
 2  3  2     1.7135787123e-02
 2  3  3     5.6012727485e-03
 3  1  1     2.2015650947e-02
 3  1  2     0.0000000000e+00
 3  1  3     0.0000000000e+00
 3  2  1     0.0000000000e+00
 3  2  2     1.7135787123e-02
 3  2  3     5.6012727485e-03
 3  3  1     0.0000000000e+00
 3  3  2     7.8206622960e-03
 3  3  3     5.2261664369e-02

   23
0.0000000000e+00 0.0000000000e+00 0.0000000000e+00
0.0000000000e+00 0.0000000000e+00 -6.2742236984e+00
     1      1     14
 1  1  1     0.0000000000e+00
 1  1  2    -7.6833669786e-03
 1  1  3    -4.7347992734e-02
 1  2  1    -1.3633348120e-02
 1  2  2     0.0000000000e+00
 1  2  3     0.0000000000e+00
 1  3  1    -4.2874418416e-02
 1  3  2     0.0000000000e+00
 1  3  3     0.0000000000e+00
 2  1  1    -1.3633348120e-02
 2  1  2     0.0000000000e+00
 2  1  3     0.0000000000e+00
 2  2  1     0.0000000000e+00
 2  2  2     1.4862028858e-01
 2  2  3     1.3240903922e-01
 2  3  1     0.0000000000e+00
 2  3  2     4.0293705719e-01
 2  3  3     4.4038077593e-01
 3  1  1    -4.2874418416e-02
 3  1  2     0.0000000000e+00
 3  1  3     0.0000000000e+00
 3  2  1     0.0000000000e+00
 3  2  2     4.0293705719e-01
 3  2  3     4.4038077593e-01
 3  3  1     0.0000000000e+00
 3  3  2     7.6306141690e-01
 3  3  3     6.5051265270e-01

   24
0.0000000000e+00 0.0000000000e+00 0.0000000000e+00
-6.6866790573e+00 0.0000000000e+00 -6.2742236984e+00
     1      1      3
 1  1  1     1.2471916142e-01
 1  1  2     3.3550406062e-02
 1  1  3     2.1224190133e-01
 1  2  1     4.4065255540e-02
 1  2  2    -6.1199380502e-02
 1  2  3     3.9444868933e-02
 1  3  1     2.2181090419e-01
 1  3  2     3.4918789940e-02
 1  3  3     8.3037620814e-02
 2  1  1     4.4065255540e-02
 2  1  2    -6.1199380502e-02
 2  1  3     3.9444868933e-02
 2  2  1    -1.0965171218e-01
 2  2  2    -4.4694245308e-02
 2  2  3    -6.0286519220e-02
 2  3  1     2.9094437226e-02
 2  3  2    -3.2061413722e-02
 2  3  3     2.0101702257e-02
 3  1  1     2.2181090419e-01
 3  1  2     3.4918789940e-02
 3  1  3     8.3037620814e-02
 3  2  1     2.9094437226e-02
 3  2  2    -3.2061413722e-02
 3  2  3     2.0101702257e-02
 3  3  1     4.7720784158e-02
 3  3  2     2.0307946967e-02
 3  3  3    -4.8233273774e-02

   25
0.0000000000e+00 0.0000000000e+00 0.0000000000e+00
-6.6866790573e+00 0.0000000000e+00 -6.2742236984e+00
     1      1     11
 1  1  1    -1.2827843779e-02
 1  1  2     1.2950314936e-01
 1  1  3     6.0277880812e-02
 1  2  1     5.7325202203e-02
 1  2  2     3.3716604742e-01
 1  2  3     1.7501848892e-01
 1  3  1     3.4471086509e-03
 1  3  2     1.3800045334e-01
 1  3  3     6.9721423330e-02
 2  1  1     5.7325202203e-02
 2  1  2     3.3716604742e-01
 2  1  3     1.7501848892e-01
 2  2  1     1.4529460940e-01
 2  2  2     6.1762249863e-01
 2  2  3     3.8819332970e-01
 2  3  1     2.1131193413e-02
 2  3  2     2.3884674897e-01
 2  3  3     1.9600023247e-01
 3  1  1     3.4471086509e-03
 3  1  2     1.3800045334e-01
 3  1  3     6.9721423330e-02
 3  2  1     2.1131193413e-02
 3  2  2     2.3884674897e-01
 3  2  3     1.9600023247e-01
 3  3  1    -2.9522499475e-02
 3  3  2     4.8851549664e-02
 3  3  3     7.8813972982e-02

   26
0.0000000000e+00 0.0000000000e+00 0.0000000000e+00
0.0000000000e+00 1.1956043427e+01 -6.2742236984e+00
     1      1      5
 1  1  1     0.0000000000e+00
 1  1  2     2.0357156844e-02
 1  1  3    -4.5336494416e-02
 1  2  1     9.4373050579e-03
 1  2  2     0.0000000000e+00
 1  2  3     0.0000000000e+00
 1  3  1    -2.1110037025e-02
 1  3  2     0.0000000000e+00
 1  3  3     0.0000000000e+00
 2  1  1     9.4373050579e-03
 2  1  2     0.0000000000e+00
 2  1  3     0.0000000000e+00
 2  2  1     0.0000000000e+00
 2  2  2    -2.2758132104e-03
 2  2  3     2.6707493314e-02
 2  3  1     0.0000000000e+00
 2  3  2     3.3472069065e-02
 2  3  3    -9.3950972918e-02
 3  1  1    -2.1110037025e-02
 3  1  2     0.0000000000e+00
 3  1  3     0.0000000000e+00
 3  2  1     0.0000000000e+00
 3  2  2     3.3472069065e-02
 3  2  3    -9.3950972918e-02
 3  3  1     0.0000000000e+00
 3  3  2    -8.4306639983e-02
 3  3  3     7.0930266154e-02

   27
0.0000000000e+00 0.0000000000e+00 0.0000000000e+00
0.0000000000e+00 1.1956043427e+01 -6.2742236984e+00
     1      1      8
 1  1  1     1.6441167538e-02
 1  1  2     9.7947976266e-03
 1  1  3     1.8372809995e-02
 1  2  1     6.5364793814e-03
 1  2  2     2.3772514546e-02
 1  2  3     2.8418717904e-02
 1  3  1    -1.5948112309e-03
 1  3  2    -1.6397733509e-03
 1  3  3    -6.0961816140e-03
 2  1  1     6.5364793814e-03
 2  1  2     2.3772514546e-02
 2  1  3     2.8418717904e-02
 2  2  1     2.0779703800e-02
 2  2  2     3.4941858003e-02
 2  2  3     2.3187977681e-02
 2  3  1    -1.5328575948e-03
 2  3  2    -6.4777751862e-03
 2  3  3    -8.9291138423e-03
 3  1  1    -1.5948112309e-03
 3  1  2    -1.6397733509e-03
 3  1  3    -6.0961816140e-03
 3  2  1    -1.5328575948e-03
 3  2  2    -6.4777751862e-03
 3  2  3    -8.9291138423e-03
 3  3  1     2.7680172712e-03
 3  3  2     1.6095261036e-04
 3  3  3    -9.9576176323e-03

   28
0.0000000000e+00 0.0000000000e+00 0.0000000000e+00
-6.6866790573e+00 1.1956043427e+01 -6.2742236984e+00
     1      1      8
 1  1  1    -1.6441167538e-02
 1  1  2     9.7947976266e-03
 1  1  3     1.8372809995e-02
 1  2  1     6.5364793814e-03
 1  2  2    -2.3772514546e-02
 1  2  3    -2.8418717904e-02
 1  3  1    -1.5948112309e-03
 1  3  2     1.6397733509e-03
 1  3  3     6.0961816140e-03
 2  1  1     6.5364793814e-03
 2  1  2    -2.3772514546e-02
 2  1  3    -2.8418717904e-02
 2  2  1    -2.0779703800e-02
 2  2  2     3.4941858003e-02
 2  2  3     2.3187977681e-02
 2  3  1     1.5328575948e-03
 2  3  2    -6.4777751862e-03
 2  3  3    -8.9291138423e-03
 3  1  1    -1.5948112309e-03
 3  1  2     1.6397733509e-03
 3  1  3     6.0961816140e-03
 3  2  1     1.5328575948e-03
 3  2  2    -6.4777751862e-03
 3  2  3    -8.9291138423e-03
 3  3  1    -2.7680172712e-03
 3  3  2     1.6095261036e-04
 3  3  3    -9.9576176323e-03

   29
0.0000000000e+00 0.0000000000e+00 0.0000000000e+00
0.0000000000e+00 0.0000000000e+00 0.0000000000e+00
     1      3      1
 1  1  1     8.7401485589e-03
 1  1  2     1.0363210297e-03
 1  1  3    -1.0279264964e-02
 1  2  1     9.4074752435e-03
 1  2  2     7.9711311005e-03
 1  2  3     4.8621233103e-03
 1  3  1    -1.4384815489e-02
 1  3  2    -4.1688124716e-03
 1  3  3    -2.3752835389e-02
 2  1  1     1.0363210297e-03
 2  1  2     8.4293457332e-03
 2  1  3     1.5509734218e-03
 2  2  1     7.9711311005e-03
 2  2  2    -2.2696358415e-03
 2  2  3     9.7861767913e-03
 2  3  1    -4.1688124716e-03
 2  3  2     9.8204577017e-03
 2  3  3    -3.1678222562e-03
 3  1  1    -1.0279264964e-02
 3  1  2     1.5509734218e-03
 3  1  3    -1.3043323910e-02
 3  2  1     4.8621233103e-03
 3  2  2     9.7861767913e-03
 3  2  3     4.6501073357e-04
 3  3  1    -2.3752835389e-02
 3  3  2    -3.1678222562e-03
 3  3  3    -2.3503229673e-03

   30
0.0000000000e+00 0.0000000000e+00 0.0000000000e+00
0.0000000000e+00 0.0000000000e+00 0.0000000000e+00
     1      3      3
 1  1  1    -8.7401485589e-03
 1  1  2    -1.0363210297e-03
 1  1  3     1.0279264964e-02
 1  2  1    -1.0363210297e-03
 1  2  2    -8.4293457332e-03
 1  2  3    -1.5509734218e-03
 1  3  1     1.0279264964e-02
 1  3  2    -1.5509734218e-03
 1  3  3     1.3043323910e-02
 2  1  1    -9.4074752435e-03
 2  1  2    -7.9711311005e-03
 2  1  3    -4.8621233103e-03
 2  2  1    -7.9711311005e-03
 2  2  2     2.2696358415e-03
 2  2  3    -9.7861767913e-03
 2  3  1    -4.8621233103e-03
 2  3  2    -9.7861767913e-03
 2  3  3    -4.6501073357e-04
 3  1  1     1.4384815489e-02
 3  1  2     4.1688124716e-03
 3  1  3     2.3752835389e-02
 3  2  1     4.1688124716e-03
 3  2  2    -9.8204577017e-03
 3  2  3     3.1678222562e-03
 3  3  1     2.3752835389e-02
 3  3  2     3.1678222562e-03
 3  3  3     2.3503229673e-03

   31
0.0000000000e+00 0.0000000000e+00 0.0000000000e+00
0.0000000000e+00 0.0000000000e+00 0.0000000000e+00
     1      3      6
 1  1  1    -2.4782159998e-04
 1  1  2     2.0301585255e-05
 1  1  3    -3.9400875574e-04
 1  2  1    -1.7629084434e-03
 1  2  2    -1.1436873469e-03
 1  2  3    -2.4218794026e-03
 1  3  1    -2.0845138361e-03
 1  3  2    -2.4829232165e-04
 1  3  3    -2.9804801854e-03
 2  1  1     1.1264239040e-03
 2  1  2    -4.4247921266e-04
 2  1  3    -1.6434657619e-04
 2  2  1     2.0832182442e-03
 2  2  2    -5.3805399505e-04
 2  2  3     1.5717172435e-03
 2  3  1     1.8698466472e-03
 2  3  2    -4.3065867933e-04
 2  3  3     1.3915400188e-03
 3  1  1    -1.0805173005e-03
 3  1  2    -2.1438117013e-04
 3  1  3     1.2769534201e-04
 3  2  1    -1.4697005425e-03
 3  2  2    -1.2574547246e-03
 3  2  3    -1.1421274622e-03
 3  3  1    -1.1468677762e-03
 3  3  2    -1.5120281424e-03
 3  3  3    -2.7610713487e-03

   32
0.0000000000e+00 0.0000000000e+00 0.0000000000e+00
0.0000000000e+00 0.0000000000e+00 0.0000000000e+00
     1      3      7
 1  1  1    -2.5845220933e-04
 1  1  2    -1.3902205006e-04
 1  1  3    -4.6741393745e-05
 1  2  1    -1.0622037868e-05
 1  2  2    -2.0537146140e-04
 1  2  3    -1.0031841554e-04
 1  3  1     9.8498374999e-05
 1  3  2    -9.8320374654e-05
 1  3  3     8.9677594991e-05
 2  1  1    -2.0469836591e-04
 2  1  2     1.1528242312e-03
 2  1  3    -2.7945871174e-03
 2  2  1    -3.4085993937e-04
 2  2  2     1.3218142425e-03
 2  2  3    -1.5786833156e-03
 2  3  1    -8.6279546001e-05
 2  3  2     1.5252729892e-03
 2  3  3    -1.3008038884e-03
 3  1  1     2.6544078192e-04
 3  1  2     1.1914217169e-05
 3  1  3     3.4154010292e-03
 3  2  1     5.6312590572e-05
 3  2  2    -2.0550345438e-04