 128  128
1 1
     1.036455823499815     0.000000000000000    -0.000000000000000
    -0.000000000000000     1.798440596660570     0.105385648051777
    -0.000000000000000     0.105403022465078     1.009422312070178
1 2
    -0.012270172995353     0.000000000000000     0.000000000000000
     0.000000000000000     0.018364992641321     0.000563289260062
    -0.000000000000000     0.000563202609598     0.004413653880708
1 3
     0.000022165109100     0.000000000000000     0.000000000000000
    -0.000000000000000    -0.000414916295018    -0.000000000000000
    -0.000000000000000     0.000000000000000     0.000008183828903
1 4
    -0.000022165109100     0.000000000000000    -0.000000000000000
     0.000000000000000    -0.000070874942731    -0.000000000000000
    -0.000000000000000     0.000000000000000     0.000008183828903
1 5
     0.006895538556814    -0.000000000000000    -0.000000000000000
    -0.000000000000000     0.011493309603373    -0.002773764203417
    -0.000000000000000    -0.002773864416733    -0.023199511284595
1 6
    -0.006747886391850    -0.000000000000000     0.000000000000000
     0.000000000000000     0.005198284617283    -0.000994472546134
    -0.000000000000000    -0.000994422716570    -0.007013212594916
1 7
    -0.000000000000000     0.000000000000000     0.000000000000000
     0.000000000000000    -0.000000000000000    -0.000000000000000
    -0.000000000000000    -0.000000000000000    -0.000000000000000
1 8
    -0.000000000000000     0.000000000000000     0.000000000000000
    -0.000000000000000    -0.000000000000000    -0.000000000000000
    -0.000000000000000    -0.000000000000000     0.000000000000000
1 9
     0.000961188942244    -0.000000000000000     0.000000000000000
    -0.000000000000000    -0.024010003555004     0.007305636129115
    -0.000000000000000    -0.007304570343538     0.015511603778419
1 10
    -0.001412953745441    -0.000000000000000     0.000000000000000
     0.000000000000000    -0.003245979812473     0.000299932175982
    -0.000000000000000    -0.000299901876048     0.001356795425321
1 11
     0.023113953320558     0.000000000000000    -0.000000000000000
    -0.000000000000000    -0.031499461110670    -0.004691254662703
    -0.000000000000000     0.004691221821364    -0.001176693463393
1 12
    -0.022475607746912    -0.000000000000000     0.000000000000000
     0.000000000000000    -0.016105658364147     0.001458613793568
    -0.000000000000000    -0.001458563600909     0.002291189674249
1 13
     0.001268364420790     0.000000000000000     0.000000000000000
    -0.000000000000000    -0.014145122585374    -0.002661852493226
    -0.000000000000000     0.002662046689132    -0.015018348933842
1 14
    -0.000930056631948     0.000000000000000    -0.000000000000000
     0.000000000000000    -0.001714033874980    -0.000699588966922
    -0.000000000000000     0.000699517347447    -0.001795975670623
1 15
     0.005225600359405    -0.000000000000000    -0.000000000000000
    -0.000000000000000    -0.003320086320506    -0.000329638757292
    -0.000000000000000     0.000329402603906    -0.000895449069533
1 16
    -0.005213572926392    -0.000000000000000     0.000000000000000
     0.000000000000000    -0.003282987847505    -0.000212575126975
    -0.000000000000000     0.000212595220937    -0.002402540745894
1 17
    -0.006146400614488     0.011193918152869    -0.021555708672080
     0.011194151805086     0.015590013569331    -0.003718299598291
    -0.021556693672013    -0.003718160662253    -0.021373166347932
1 18
    -0.006146400614488    -0.011193918152869     0.021555708672080
    -0.011194151805086     0.015590013569331    -0.003718299598291
     0.021556693672013    -0.003718160662253    -0.021373166347932
1 19
     0.000000000000000     0.000000000000000    -0.000000000000000
    -0.000000000000000     0.000000000000000     0.000000000000000
    -0.000000000000000     0.000000000000000    -0.000000000000000
1 20
     0.000000000000000     0.000000000000000    -0.000000000000000
    -0.000000000000000     0.000000000000000     0.000000000000000
    -0.000000000000000     0.000000000000000    -0.000000000000000
1 21
    -0.227962018205673     0.047232807715208     0.182762665573102
     0.047234283168026     0.079513311185996    -0.013994082946871
     0.182764626919782    -0.013994251184421    -0.044082706324225
1 22
    -0.227962018205673    -0.047232807715208    -0.182762665573102
    -0.047234283168026     0.079513311185996    -0.013994082946871
    -0.182764626919782    -0.013994251184421    -0.044082706324225
1 23
    -0.000000000000001    -0.000086961880573     0.000000000000003
    -0.000086958254397    -0.000275160068230     0.000052832108999
    -0.000000000000000     0.000052835901357    -0.000000000000000
1 24
    -0.000000000000001     0.000086961880573    -0.000000000000003
     0.000086958254397    -0.000275160068230     0.000052832108999
    -0.000000000000000     0.000052835901357    -0.000000000000000
1 25
    -0.000142291980582     0.001155830526261     0.000107506278011
     0.008042054416570    -0.007153234810076     0.001310347009859
    -0.006312455142300     0.007309291636046    -0.002456005478779
1 26
    -0.000142291980582    -0.001155830526261    -0.000107506278011
    -0.008042054416570    -0.007153234810076     0.001310347009859
     0.006312455142300     0.007309291636046    -0.002456005478779
1 27
    -0.000142292336481    -0.008041987925248    -0.006312417553472
    -0.001155940669229    -0.007153270294031    -0.007309253355901
     0.000107326420313    -0.001310428336718    -0.002455992432600
1 28
    -0.000142292336481     0.008041987925248     0.006312417553472
     0.001155940669229    -0.007153270294031    -0.007309253355901
    -0.000107326420313    -0.001310428336718    -0.002455992432600
1 29
     0.003607653512654    -0.003609417286452    -0.000592179592133
     0.006199922515026    -0.002590065485338     0.002034195539831
     0.004994704725222    -0.002971301382305     0.003691670145370
1 30
     0.003607653512654     0.003609417286452     0.000592179592133
    -0.006199922515026    -0.002590065485338     0.002034195539831
    -0.004994704725222    -0.002971301382305     0.003691670145370
1 31
     0.003607524797762    -0.006200950498356     0.004995320547251
     0.003610026780906    -0.002590155422350     0.002971596002239
    -0.000592381107506    -0.002034378822815     0.003691747761005
1 32
     0.003607524797762     0.006200950498356    -0.004995320547251
    -0.003610026780906    -0.002590155422350     0.002971596002239
     0.000592381107506    -0.002034378822815     0.003691747761005
1 33
     0.000284349505889     0.000000000000000     0.000000000000000
    -0.000000000000000    -0.006289806894900     0.000550215926603
    -0.000000000000000     0.003088696307811     0.001496633933953
1 34
    -0.000119720630022    -0.000000000000000     0.000000000000000
     0.000000000000000    -0.000343656777044     0.000082401452801
    -0.000000000000000     0.000158583666385     0.000049784138526
1 35
     0.097284556937891     0.000000000000000    -0.000000000000000
    -0.000000000000000    -0.171728590144175    -0.240361071971842
    -0.000000000000000    -0.238894205695347    -0.138551380284386
1 36
    -0.033460068508332    -0.000000000000000     0.000000000000000
     0.000000000000000     0.001338745043516    -0.015070324396753
    -0.000000000000000    -0.003969134373790    -0.001495593419167
1 37
     0.000251671635560     0.000000000000000    -0.000000000000000
    -0.000000000000000    -0.006851166064274    -0.000500005021452
    -0.000000000000000    -0.003932448678835    -0.001390689785047
1 38
    -0.000102780167460    -0.000000000000000     0.000000000000000
     0.000000000000000    -0.000291530170274    -0.000100856662857
    -0.000000000000000    -0.000109187363655    -0.000088263754351
1 39
     0.027266518225891     0.000000000000000     0.000000000000000
    -0.000000000000000    -0.025998632615682     0.075801546947501
    -0.000000000000000     0.065342203867506    -0.070330213847377
1 40
    -0.015200337056286     0.000000000000000    -0.000000000000000
     0.000000000000000     0.001049816499593     0.010247444649490
    -0.000000000000000     0.000236177799760    -0.000812864798873
1 41
    -0.028258399700856     0.041565588767561    -0.017769669418140
     0.063907644825459    -0.020408025447319     0.025038031115447
    -0.026525379912010     0.023042680090612     0.014050023756533
1 42
    -0.028258399700856    -0.041565588767561     0.017769669418140
    -0.063907644825459    -0.020408025447319     0.025038031115447
     0.026525379912010     0.023042680090612     0.014050023756533
1 43
    -0.000020918470323    -0.005313921373501    -0.000747945826835
    -0.000272133005713    -0.005356561762924    -0.001002294081760
     0.000226490970091    -0.000782936187324    -0.000126337507952
1 44
    -0.000020918470323     0.005313921373501     0.000747945826835
     0.000272133005713    -0.005356561762924    -0.001002294081760
    -0.000226490970091    -0.000782936187324    -0.000126337507952
1 45
    -0.001038887337839    -0.000992542085238     0.000528555682769
     0.015065979929519     0.001061596581548    -0.007915201013147
     0.006596181121578     0.001107411385912    -0.010992743038516
1 46
    -0.001038887337839     0.000992542085238    -0.000528555682769
    -0.015065979929519     0.001061596581548    -0.007915201013147
    -0.006596181121578     0.001107411385912    -0.010992743038516
1 47
    -0.000045572225502    -0.002147621937559     0.000989558283456
    -0.000199336624915    -0.002350976011830     0.001149172829984
     0.000016774610586     0.001082377887738     0.000055539693149
1 48
    -0.000045572225502     0.002147621937559    -0.000989558283456
     0.000199336624915    -0.002350976011830     0.001149172829984
    -0.000016774610586     0.001082377887738     0.000055539693149
1 49
     0.082752658293711     0.000000000000000     0.000000000000000
    -0.000000000000000    -0.484858362858327     0.151649987020019
    -0.000000000000000     0.189421754891872     0.043130978717929
1 50
     0.005591209291305    -0.000000000000000     0.000000000000000
    -0.000000000000000     0.005109709917747     0.001840459930332
    -0.000000000000000     0.001153269969955     0.003147241694403
1 51
     0.001018556806327    -0.000000000000000     0.000000000000000
    -0.000000000000000    -0.001356128703531     0.000001773392106
    -0.000000000000000    -0.000318626569368    -0.000170923557151
1 52
    -0.001218672999540    -0.000000000000000     0.000000000000000
     0.000000000000000    -0.002066032757593     0.000047374321134
    -0.000000000000000    -0.000415694216768     0.000017339199301
1 53
    -0.004105384697064     0.000000000000000    -0.000000000000000
     0.000000000000000     0.001067559995940    -0.000868825709081
     0.000000000000000     0.005522161712258    -0.018195371450599
1 54
     0.000481279241045     0.000000000000000     0.000000000000000
    -0.000000000000000    -0.000132887324617     0.000700290708841
    -0.000000000000000    -0.001306376086986    -0.001962176167768
1 55
     0.000201844168734     0.000000000000000    -0.000000000000000
    -0.000000000000000    -0.000096139789262    -0.000135107169367
     0.000000000000000     0.000494699463038     0.000063107555504
1 56
    -0.000224157390408    -0.000000000000000    -0.000000000000000
     0.000000000000000    -0.000400988001191    -0.000010208212236
    -0.000000000000000     0.000472341409943     0.000000625473633
1 57
    -0.000003041493910    -0.000196087258738     0.000017324623607
     0.000703419058881    -0.000814134429526     0.000002343564849
    -0.000473442444816     0.000482065418016     0.000012418984705
1 58
    -0.000003041493910     0.000196087258738    -0.000017324623607
    -0.000703419058881    -0.000814134429526     0.000002343564848
     0.000473442444816     0.000482065418016     0.000012418984704
1 59
    -0.009643292490172    -0.010152119243270    -0.021122856618348
    -0.004677998244528    -0.007151243492486    -0.015861652429997
    -0.007218272862448    -0.008857003787038    -0.012660474438400
1 60
    -0.009643292490172     0.010152119243270     0.021122856618348
     0.004677998244528    -0.007151243492486    -0.015861652429997
     0.007218272862448    -0.008857003787038    -0.012660474438400
1 61
     0.000100781535572    -0.000402413118036    -0.000088001485307
     0.000739541544528    -0.000791032164588     0.000096443476372
     0.000502396851495    -0.000501519061066     0.000010384334187
1 62
     0.000100781535572     0.000402413118036     0.000088001485307
    -0.000739541544528    -0.000791032164588     0.000096443476372
    -0.000502396851495    -0.000501519061066     0.000010384334187
1 63
    -0.008988927714072    -0.002742166077639     0.022540384017626
    -0.008110588046339    -0.000485535545711     0.024790237666964
     0.009038318849723     0.007710394051513    -0.010351860089560
1 64
    -0.008988927714072     0.002742166077639    -0.022540384017626
     0.008110588046339    -0.000485535545711     0.024790237666964
    -0.009038318849723     0.007710394051513    -0.010351860089560
1 65
    -0.000061946610810     0.000596153876966    -0.000153267503556
    -0.000055909774186    -0.001039126266377     0.000009376981088
    -0.000117881962475    -0.000349980035213    -0.000015443286939
1 66
     0.000039188676986    -0.000208501123394     0.000107320597040
     0.001087327075497     0.000646389962248     0.000245214554355
    -0.000003125730930    -0.000085673116627    -0.000124749206267
1 67
    -0.201213771193238    -0.223985236493222     0.015297995555420
    -0.249359580495317    -0.324286116334474     0.028841940528859
     0.045682498566708     0.057344383171629    -0.012769206741445
1 68
     0.046640442174378     0.005936188334556     0.032757488166612
    -0.067381043362651    -0.014320239665558    -0.022219829161018
     0.004330100543412     0.005323382785005    -0.011241646212958
1 69
    -0.000049844395586    -0.000067938788162    -0.000107735888436
    -0.000002258764028     0.000275533350404     0.000160338429088
     0.000059244396289     0.000014930470328     0.000144307952791
1 70
     0.000046502144428     0.000084130112962     0.000105816796464
     0.000359683330811     0.000454272521765     0.000238097678658
     0.000007450448331     0.000022666803991     0.000217163034193
1 71
    -0.004455721853354     0.003505440982292     0.005841075709826
     0.001413462988482     0.001330825310401     0.004603608458585
     0.011514968974424     0.009339495287145     0.017586781613653
1 72
     0.007203695321664    -0.000816409579080    -0.001014864243682
    -0.007187433629737    -0.000419770190252     0.003172669956379
    -0.001408192345003     0.003279774387288     0.004639797256074
1 73
     0.000039188676986     0.000208501123394    -0.000107320597041
    -0.001087327075497     0.000646389962248     0.000245214554355
     0.000003125730930    -0.000085673116627    -0.000124749206267
1 74
    -0.000061946610810    -0.000596153876966     0.000153267503556
     0.000055909774186    -0.001039126266377     0.000009376981088
     0.000117881962475    -0.000349980035213    -0.000015443286940
1 75
     0.046640442174378    -0.005936188334556    -0.032757488166612
     0.067381043362650    -0.014320239665558    -0.022219829161018
    -0.004330100543412     0.005323382785005    -0.011241646212958
1 76
    -0.201213771193239     0.223985236493222    -0.015297995555420
     0.249359580495317    -0.324286116334474     0.028841940528858
    -0.045682498566708     0.057344383171629    -0.012769206741445
1 77
     0.000046502144428    -0.000084130112962    -0.000105816796464
    -0.000359683330811     0.000454272521765     0.000238097678658
    -0.000007450448331     0.000022666803991     0.000217163034193
1 78
    -0.000049844395585     0.000067938788162     0.000107735888436
     0.000002258764028     0.000275533350404     0.000160338429089
    -0.000059244396289     0.000014930470328     0.000144307952792
1 79
     0.007203695321665     0.000816409579080     0.001014864243682
     0.007187433629737    -0.000419770190252     0.003172669956379
     0.001408192345003     0.003279774387288     0.004639797256074
1 80
    -0.004455721853354    -0.003505440982292    -0.005841075709826
    -0.001413462988482     0.001330825310401     0.004603608458586
    -0.011514968974424     0.009339495287145     0.017586781613653
1 81
     0.004458912487733    -0.000243205918631     0.001146128595386
     0.000046963218613     0.000353692871934    -0.001044616149334
    -0.000302330946301    -0.002010212328423     0.002136797990621
1 82
    -0.007254445005695    -0.000800801542258     0.000793162888259
     0.035682710497786     0.014941550479473    -0.031203371516697
    -0.055458307899533    -0.035189303952015     0.054558779114161
1 83
     0.000114166264053    -0.000143244740513    -0.000064286843925
    -0.000152134081908     0.000153637024164     0.000115987910383
    -0.000016844390129     0.000017912081734     0.000040551867543
1 84
    -0.000105823156984     0.000203835081502     0.000057105316883
    -0.000343444701930     0.000315858246218     0.000809009182740
     0.000055175129510    -0.000362054515846    -0.000006731517957
1 85
     0.019923631675243    -0.000668538911084    -0.008737403467159
    -0.013712472258429     0.000248986740504     0.002571318080761
     0.000544201491284    -0.000000496071737    -0.004281174724543
1 86
    -0.059813977016415    -0.069632131291257    -0.025423377044282
    -0.057514692766247    -0.166246370149257    -0.084673754297738
    -0.009413389602963    -0.097388187525940    -0.060451976938234
1 87
     0.000513234111402    -0.000363068391662    -0.000055922731175
    -0.000322350916114     0.000833879348722    -0.000208524948331
     0.000175021226798    -0.000012248062392    -0.000071579206461
1 88
    -0.000449291717924     0.000508329906077     0.000038705473820
    -0.000478305839911    -0.000283948108351    -0.000008775833235
     0.000171346812551     0.000210313514178    -0.000086657596304
1 89
    -0.007254445005695     0.000800801542258    -0.000793162888258
    -0.035682710497786     0.014941550479473    -0.031203371516697
     0.055458307899533    -0.035189303952015     0.054558779114162
1 90
     0.004458912487733     0.000243205918631    -0.001146128595386
    -0.000046963218614     0.000353692871934    -0.001044616149334
     0.000302330946301    -0.002010212328423     0.002136797990621
1 91
    -0.000105823156984    -0.000203835081502    -0.000057105316882
     0.000343444701930     0.000315858246218     0.000809009182740
    -0.000055175129510    -0.000362054515846    -0.000006731517957
1 92
     0.000114166264053     0.000143244740513     0.000064286843925
     0.000152134081908     0.000153637024164     0.000115987910383
     0.000016844390129     0.000017912081734     0.000040551867543
1 93
    -0.059813977016415     0.069632131291257     0.025423377044282
     0.057514692766247    -0.166246370149258    -0.084673754297738
     0.009413389602963    -0.097388187525940    -0.060451976938234
1 94
     0.019923631675243     0.000668538911084     0.008737403467159
     0.013712472258429     0.000248986740504     0.002571318080762
    -0.000544201491283    -0.000000496071737    -0.004281174724543
1 95
    -0.000449291717924    -0.000508329906077    -0.000038705473820
     0.000478305839911    -0.000283948108351    -0.000008775833235
    -0.000171346812551     0.000210313514178    -0.000086657596305
1 96
     0.000513234111402     0.000363068391662     0.000055922731175
     0.000322350916115     0.000833879348722    -0.000208524948331
    -0.000175021226797    -0.000012248062392    -0.000071579206461
1 97
    -0.006623082724405     0.000000000000000     0.000000000000000
     0.000000000000000     0.013222021088817     0.021691108993182
    -0.000000000000000    -0.043310423262029    -0.026742749921027
1 98
     0.001186322539522     0.000000000000000    -0.000000000000000
    -0.000000000000000     0.000758325564157     0.000622292963841
     0.000000000000000    -0.004367155128190    -0.001475306401856
1 99
    -0.001325677222812    -0.000000000000000     0.000000000000000
     0.000000000000000     0.000897053775142     0.000429054900078
    -0.000000000000000     0.001078479485761     0.000632443910967
1 100
     0.001689147910406     0.000000000000000    -0.000000000000000
    -0.000000000000000     0.001852547606579     0.001269656764643
    -0.000000000000000     0.000648363428584     0.000110649338500
1 101
    -0.030399929503561    -0.000000000000000    -0.000000000000000
     0.000000000000000     0.070388322204978     0.060552077745064
     0.000000000000000     0.075539848220585     0.028495240626573
1 102
    -0.001307496269544     0.000000000000000     0.000000000000000
     0.000000000000000     0.003781640202271     0.000887737379345
     0.000000000000000     0.006388920106149     0.001859993516544
1 103
     0.000180508711472     0.000000000000000     0.000000000000000
    -0.000000000000000    -0.000115792478472    -0.000101304688010
     0.000000000000000    -0.000338580320347    -0.000397223311369
1 104
    -0.000063444993702    -0.000000000000000    -0.000000000000000
     0.000000000000000     0.000203354507617     0.000160515573718
     0.000000000000000    -0.000291623547799    -0.000140710393610
1 105
    -0.044168915559344    -0.000000000000000    -0.000000000000000
     0.000000000000000    -0.092484586276257     0.108218779379338
     0.000000000000000     0.159019352378143    -0.237290496689607
1 106
     0.011818095823793    -0.000000000000000     0.000000000000000
    -0.000000000000000    -0.001416205276399    -0.000606385704532
     0.000000000000000    -0.000922760186623     0.001827171990063
1 107
    -0.000215068194247     0.000000000000000    -0.000000000000000
     0.000000000000000     0.001869984846840     0.001126331538654
     0.000000000000000     0.000170109350506     0.000034813521874
1 108
     0.000214877578593     0.000000000000000    -0.000000000000000
    -0.000000000000000     0.000493576274626     0.000193987244296
    -0.000000000000000     0.000119902110957     0.000029614828589
1 109
    -0.002249123031473     0.000000000000000     0.000000000000000
     0.000000000000000    -0.104097850702252    -0.167697588239921
     0.000000000000000    -0.159725710059596    -0.310082696092137
1 110
    -0.002597949808494    -0.000000000000000     0.000000000000000
     0.000000000000000    -0.003416674142917     0.002438377305699
     0.000000000000000    -0.001917138320472     0.001551845747075
1 111
    -0.000427539052338    -0.000000000000001    -0.000000000000000
     0.000000000000000     0.002343754919836    -0.001137543138967
    -0.000000000000000    -0.000418616180675     0.000050806488083
1 112
     0.000428016457712    -0.000000000000000    -0.000000000000000
    -0.000000000000000     0.000957294795681    -0.000209472035601
     0.000000000000000    -0.000377758110204     0.000051517580707
1 113
    -0.000149706231312     0.000533730543239    -0.000254061450206
     0.000309019776423    -0.000116297034156     0.001035202486467
     0.000690326876561    -0.001124560394011    -0.000209872179940
1 114
    -0.000149706231312    -0.000533730543239     0.000254061450206
    -0.000309019776423    -0.000116297034156     0.001035202486467
    -0.000690326876561    -0.001124560394011    -0.000209872179940
1 115
     0.001940788086763     0.057164539810826     0.040101377597364
     0.003668967950634     0.040083666053179     0.045337232507459
    -0.009969163152208     0.001333129931474    -0.019230147515269
1 116
     0.001940788086763    -0.057164539810826    -0.040101377597364
    -0.003668967950634     0.040083666053179     0.045337232507460
     0.009969163152208     0.001333129931474    -0.019230147515269
1 117
    -0.000128116163261     0.000485501117347     0.000529544099960
    -0.000621689237879     0.000232647615478    -0.000029207827118
    -0.000463322151688     0.000381790170143     0.000085449189207
1 118
    -0.000128116163261    -0.000485501117347    -0.000529544099960
     0.000621689237879     0.000232647615478    -0.000029207827119
     0.000463322151688     0.000381790170142     0.000085449189207
1 119
     0.001249821541888     0.011377542687051    -0.006196265584302
     0.001854882595089     0.006448309947688    -0.004790323051298
    -0.004732339581483    -0.006153793999600     0.006120938515222
1 120
     0.001249821541888    -0.011377542687051     0.006196265584301
    -0.001854882595089     0.006448309947689    -0.004790323051297
     0.004732339581483    -0.006153793999600     0.006120938515222
1 121
    -0.089334790265144    -0.047639403084439    -0.006188586179136
    -0.043463139046362    -0.063679460148642    -0.004051189327451
    -0.017738797765717    -0.010247058535398    -0.029903210807392
1 122
    -0.089334790265144     0.047639403084440     0.006188586179136
     0.043463139046362    -0.063679460148642    -0.004051189327452
     0.017738797765717    -0.010247058535397    -0.029903210807391
1 123
     0.000002317114694    -0.000325655212831     0.000181953245604
    -0.000776221503603     0.001572057766627    -0.000460724449108
     0.000083072266280    -0.000007051835427    -0.000170222536805
1 124
     0.000002317114694     0.000325655212831    -0.000181953245604
     0.000776221503603     0.001572057766627    -0.000460724449107
    -0.000083072266280    -0.000007051835427    -0.000170222536805
1 125
     0.000105406557047    -0.001478075967181    -0.006170308218701
    -0.000234517322824    -0.006826636252002    -0.003714288987026
    -0.009196201877259    -0.006278148305971     0.008380631941558
1 126
     0.000105406557047     0.001478075967181     0.006170308218701
     0.000234517322824    -0.006826636252002    -0.003714288987026
     0.009196201877259    -0.006278148305971     0.008380631941558
1 127
     0.000000168187092    -0.000275225881776    -0.000182335139411
    -0.000154085374605     0.000742762967671     0.000438845985049
    -0.000091753777987     0.000339357192350     0.000172251422619
1 128
     0.000000168187092     0.000275225881777     0.000182335139411
     0.000154085374605     0.000742762967671     0.000438845985048
     0.000091753777987     0.000339357192350     0.000172251422619
2 1
    -0.012270172995353     0.000000000000000     0.000000000000000
     0.000000000000000     0.018364992641321     0.000563289260062
     0.000000000000000     0.000563202609598     0.004413653880708
2 2
     1.036455823499815     0.000000000000000    -0.000000000000000
    -0.000000000000000     1.798440596660570     0.105385648051777
     0.000000000000000     0.105403022465078     1.009422312070178
2 3
    -0.000022165109100     0.000000000000000    -0.000000000000000
     0.000000000000000    -0.000070874942731    -0.000000000000000
     0.000000000000000     0.000000000000000     0.000008183828903
2 4
     0.000022165109100     0.000000000000000     0.000000000000000
    -0.000000000000000    -0.000414916295018    -0.000000000000000
     0.000000000000000     0.000000000000000     0.000008183828903
2 5
    -0.006747886391850    -0.000000000000000     0.000000000000000
     0.000000000000000     0.005198284617283    -0.000994472546134
     0.000000000000000    -0.000994422716570    -0.007013212594916
2 6
     0.006895538556814    -0.000000000000000    -0.000000000000000
    -0.000000000000000     0.011493309603373    -0.002773764203417
     0.000000000000000    -0.002773864416733    -0.023199511284595
2 7
    -0.000000000000000     0.000000000000000     0.000000000000000
    -0.000000000000000    -0.000000000000000    -0.000000000000000
     0.000000000000000    -0.000000000000000     0.000000000000000
2 8
    -0.000000000000000     0.000000000000000     0.000000000000000
     0.000000000000000    -0.000000000000000    -0.000000000000000
     0.000000000000000    -0.000000000000000    -0.000000000000000
2 9
    -0.001412953745441    -0.000000000000000     0.000000000000000
     0.000000000000000    -0.003245979812473     0.000299932175982
     0.000000000000000    -0.000299901876048     0.001356795425321
2 10
     0.000961188942244    -0.000000000000000     0.000000000000000
    -0.000000000000000    -0.024010003555004     0.007305636129115
     0.000000000000000    -0.007304570343538     0.015511603778419
2 11
    -0.022475607746912    -0.000000000000000     0.000000000000000
     0.000000000000000    -0.016105658364147     0.001458613793568
     0.000000000000000    -0.001458563600909     0.002291189674249
2 12
     0.023113953320558     0.000000000000000    -0.000000000000000
    -0.000000000000000    -0.031499461110670    -0.004691254662703
     0.000000000000000     0.004691221821364    -0.001176693463393
2 13
    -0.000930056631948     0.000000000000000    -0.000000000000000
     0.000000000000000    -0.001714033874980    -0.000699588966922
     0.000000000000000     0.000699517347447    -0.001795975670623
2 14
     0.001268364420790     0.000000000000000     0.000000000000000
    -0.000000000000000    -0.014145122585374    -0.002661852493226
     0.000000000000000     0.002662046689132    -0.015018348933842
2 15
    -0.005213572926392    -0.000000000000000     0.000000000000000
     0.000000000000000    -0.003282987847505    -0.000212575126975
     0.000000000000000     0.000212595220937    -0.002402540745894
2 16
     0.005225600359405    -0.000000000000000    -0.000000000000000
    -0.000000000000000    -0.003320086320506    -0.000329638757292
     0.000000000000000     0.000329402603906    -0.000895449069533
2 17
    -0.006146400614488    -0.011193918152869     0.021555708672080
    -0.011194151805086     0.015590013569331    -0.003718299598291
     0.021556693672013    -0.003718160662253    -0.021373166347932
2 18
    -0.006146400614488     0.011193918152869    -0.021555708672080